TITLE = "Visualization of the volumetric solution"
VARIABLES = "x""y""Conservative_1""Conservative_2""Conservative_3""Conservative_4""Pressure""Temperature""C<sub>p</sub>""Mach""<greek>m</greek>""C<sub>f</sub>_x""C<sub>f</sub>_y""h""y<sup>+</sup>"
ZONE NODES= 5233, ELEMENTS= 10216, DATAPACKING=POINT, ZONETYPE=FEQUADRILATERAL
1.002197e+00	-1.305445e-03	1.291006e-01	6.218326e-01	1.972698e+00	2.781899e+04	1.112097e+04	3.000852e+02	8.560187e-02	4.613513e-02	1.846319e-05	0.000000e+00	0.000000e+00	0.000000e+00	0.000000e+00	
1.002614e+00	-9.209137e-04	1.290582e-01	4.161993e-01	1.636544e+00	2.780818e+04	1.111885e+04	3.001266e+02	6.538893e-02	3.767469e-02	1.846515e-05	0.000000e+00	0.000000e+00	0.000000e+00	0.000000e+00	
1.002286e+00	-1.616959e-03	1.289483e-01	7.978969e-01	1.938357e+00	2.778638e+04	1.110774e+04	3.000823e+02	-4.080267e-02	4.681003e-02	1.846306e-05	0.000000e+00	0.000000e+00	0.000000e+00	0.000000e+00	
1.001800e+00	-1.544476e-03	1.289086e-01	7.492212e-01	2.487619e+00	2.778031e+04	1.110165e+04	3.000103e+02	-9.895070e-02	5.804166e-02	1.845965e-05	0.000000e+00	0.000000e+00	0.000000e+00	0.000000e+00	
1.002461e+00	-2.010072e-03	1.289580e-01	9.901421e-01	1.867778e+00	2.778911e+04	1.110871e+04	3.000859e+02	-3.148257e-02	4.720455e-02	1.846323e-05	0.000000e+00	0.000000e+00	0.000000e+00	0.000000e+00	
1.002670e+00	-2.507068e-03	1.289604e-01	1.278808e+00	1.804024e+00	2.779111e+04	1.110886e+04	3.000844e+02	-3.005451e-02	4.937655e-02	1.846315e-05	0.000000e+00	0.000000e+00	0.000000e+00	0.000000e+00	
1.002756e+00	-1.468529e-03	1.289010e-01	8.126546e-01	1.666286e+00	2.777506e+04	1.110469e+04	3.001101e+02	-6.988399e-02	4.141323e-02	1.846437e-05	0.000000e+00	0.000000e+00	0.000000e+00	0.000000e+00	
1.003178e+00	-1.057330e-03	1.289590e-01	6.569703e-01	1.522805e+00	2.778637e+04	1.111028e+04	3.001262e+02	-1.647774e-02	3.703028e-02	1.846513e-05	0.000000e+00	0.000000e+00	0.000000e+00	0.000000e+00	
1.003061e+00	-2.015057e-03	1.289616e-01	1.074175e+00	1.653648e+00	2.778929e+04	1.110969e+04	3.001041e+02	-2.217545e-02	4.402918e-02	1.846409e-05	0.000000e+00	0.000000e+00	0.000000e+00	0.000000e+00	
1.003131e+00	-6.599100e-04	1.289315e-01	2.819094e-01	1.481496e+00	2.777944e+04	1.110825e+04	3.001351e+02	-3.592327e-02	3.367889e-02	1.846555e-05	0.000000e+00	0.000000e+00	0.000000e+00	0.000000e+00	
1.002160e+00	-9.627898e-04	1.288456e-01	3.920401e-01	1.920730e+00	2.776406e+04	1.109966e+04	3.001031e+02	-1.179703e-01	4.381027e-02	1.846404e-05	0.000000e+00	0.000000e+00	0.000000e+00	0.000000e+00	
1.001764e+00	-1.165465e-03	1.287902e-01	5.038998e-01	2.538030e+00	2.775484e+04	1.109154e+04	3.000124e+02	-1.955577e-01	5.786160e-02	1.845975e-05	0.000000e+00	0.000000e+00	0.000000e+00	0.000000e+00	
1.002645e+00	-3.642309e-04	1.290673e-01	-4.772275e-01	1.357432e+00	2.780795e+04	1.111997e+04	3.001358e+02	7.610040e-02	3.209960e-02	1.846559e-05	0.000000e+00	0.000000e+00	0.000000e+00	0.000000e+00	
1.002147e+00	-6.233778e-04	1.290361e-01	-2.254450e-01	1.771708e+00	2.780447e+04	1.111684e+04	3.001239e+02	4.620298e-02	3.985380e-02	1.846502e-05	0.000000e+00	0.000000e+00	0.000000e+00	0.000000e+00	
1.001394e+00	-1.368735e-03	1.290305e-01	7.544130e-01	3.606293e+00	2.781359e+04	1.110439e+04	2.998009e+02	-7.273033e-02	8.226291e-02	1.844974e-05	0.000000e+00	0.000000e+00	0.000000e+00	0.000000e+00	
1.001934e+00	-1.963748e-03	1.288923e-01	9.747720e-01	2.285032e+00	2.777676e+04	1.110113e+04	3.000340e+02	-1.039354e-01	5.550550e-02	1.846077e-05	0.000000e+00	0.000000e+00	0.000000e+00	0.000000e+00	
1.001492e+00	-1.787183e-03	1.289808e-01	9.663447e-01	2.977610e+00	2.779944e+04	1.110458e+04	2.999214e+02	-7.097914e-02	6.990932e-02	1.845544e-05	0.000000e+00	0.000000e+00	0.000000e+00	0.000000e+00	
1.002103e+00	-2.399965e-03	1.288528e-01	1.277719e+00	2.080236e+00	2.776897e+04	1.109834e+04	3.000506e+02	-1.305896e-01	5.456088e-02	1.846156e-05	0.000000e+00	0.000000e+00	0.000000e+00	0.000000e+00	
1.002279e+00	-2.889854e-03	1.289127e-01	1.569682e+00	1.923405e+00	2.778318e+04	1.110371e+04	3.000563e+02	-7.928263e-02	5.545795e-02	1.846183e-05	0.000000e+00	0.000000e+00	0.000000e+00	0.000000e+00	
1.002896e+00	-3.028322e-03	1.289514e-01	1.600088e+00	1.737572e+00	2.779127e+04	1.110785e+04	3.000781e+02	-3.969314e-02	5.274765e-02	1.846286e-05	0.000000e+00	0.000000e+00	0.000000e+00	0.000000e+00	
1.003315e+00	-2.573727e-03	1.289250e-01	1.367031e+00	1.661294e+00	2.778343e+04	1.110619e+04	3.000948e+02	-5.557696e-02	4.805219e-02	1.846365e-05	0.000000e+00	0.000000e+00	0.000000e+00	0.000000e+00	
1.003363e+00	-1.558909e-03	1.290210e-01	9.079425e-01	1.517756e+00	2.780039e+04	1.111531e+04	3.001177e+02	3.152995e-02	3.947068e-02	1.846473e-05	0.000000e+00	0.000000e+00	0.000000e+00	0.000000e+00	
1.003714e+00	-7.846359e-04	1.290544e-01	4.583465e-01	1.429406e+00	2.780552e+04	1.111872e+04	3.001319e+02	6.409691e-02	3.349116e-02	1.846540e-05	0.000000e+00	0.000000e+00	0.000000e+00	0.000000e+00	
1.003716e+00	-2.075746e-03	1.289587e-01	1.187784e+00	1.555653e+00	2.778872e+04	1.110955e+04	3.001069e+02	-2.351685e-02	4.370310e-02	1.846422e-05	0.000000e+00	0.000000e+00	0.000000e+00	0.000000e+00	
1.003191e+00	-1.377024e-04	1.288645e-01	-3.337297e-01	1.262039e+00	2.776242e+04	1.110232e+04	3.001310e+02	-9.252209e-02	2.916838e-02	1.846536e-05	0.000000e+00	0.000000e+00	0.000000e+00	0.000000e+00	
1.002809e+00	2.120067e-04	1.291512e-01	-1.043635e+00	9.450090e-01	2.782194e+04	1.112571e+04	3.000955e+02	1.308786e-01	3.139052e-02	1.846368e-05	0.000000e+00	0.000000e+00	0.000000e+00	0.000000e+00	
1.001749e+00	-8.190230e-04	1.294238e-01	-3.492354e-01	2.361617e+00	2.789114e+04	1.114765e+04	3.000541e+02	3.405371e-01	5.311830e-02	1.846172e-05	0.000000e+00	0.000000e+00	0.000000e+00	0.000000e+00	
1.001384e+00	-1.007465e-03	1.292421e-01	-1.581644e-01	3.723405e+00	2.786006e+04	1.112253e+04	2.997989e+02	1.005435e-01	8.307377e-02	1.844965e-05	0.000000e+00	0.000000e+00	0.000000e+00	0.000000e+00	
1.002356e+00	5.656440e-04	1.284953e-01	-4.170500e-01	9.784228e-01	2.767772e+04	1.106933e+04	3.000989e+02	-4.077801e-01	2.383469e-02	1.846384e-05	0.000000e+00	0.000000e+00	0.000000e+00	0.000000e+00	
1.002273e+00	7.750813e-05	1.287422e-01	-1.155569e+00	9.500001e-01	2.773617e+04	1.109099e+04	3.001095e+02	-2.008015e-01	3.345837e-02	1.846434e-05	0.000000e+00	0.000000e+00	0.000000e+00	0.000000e+00	
1.002183e+00	-3.150711e-04	1.286016e-01	-9.836238e-01	1.290006e+00	2.770936e+04	1.107965e+04	3.001305e+02	-3.091154e-01	3.632138e-02	1.846534e-05	0.000000e+00	0.000000e+00	0.000000e+00	0.000000e+00	
1.001748e+00	-4.546448e-04	1.293859e-01	-1.534895e+00	1.719745e+00	2.788245e+04	1.114477e+04	3.000644e+02	3.129997e-01	5.130319e-02	1.846221e-05	0.000000e+00	0.000000e+00	0.000000e+00	0.000000e+00	
1.001040e+00	-1.170348e-03	1.283840e-01	6.408218e-01	5.124252e+00	2.768753e+04	1.103347e+04	2.993859e+02	-7.504045e-01	1.159644e-01	1.843009e-05	0.000000e+00	0.000000e+00	0.000000e+00	0.000000e+00	
1.003567e+00	-3.218899e-03	1.289686e-01	1.641905e+00	1.641222e+00	2.779516e+04	1.110971e+04	3.000881e+02	-2.198474e-02	5.183407e-02	1.846333e-05	0.000000e+00	0.000000e+00	0.000000e+00	0.000000e+00	
1.001093e+00	-1.600978e-03	1.290767e-01	1.419315e+00	4.459742e+00	2.783241e+04	1.109902e+04	2.995487e+02	-1.240395e-01	1.045031e-01	1.843780e-05	0.000000e+00	0.000000e+00	0.000000e+00	0.000000e+00	
1.000726e+00	-1.407594e-03	1.279198e-01	2.305496e+00	6.416495e+00	2.760874e+04	1.097082e+04	2.987662e+02	-1.348964e+00	1.538197e-01	1.840073e-05	0.000000e+00	0.000000e+00	0.000000e+00	0.000000e+00	
1.001584e+00	-2.254317e-03	1.290971e-01	1.233928e+00	2.610209e+00	2.782402e+04	1.111669e+04	2.999781e+02	4.477712e-02	6.441140e-02	1.845813e-05	0.000000e+00	0.000000e+00	0.000000e+00	0.000000e+00	
1.001141e+00	-2.074411e-03	1.281799e-01	1.651317e+00	3.344513e+00	2.763223e+04	1.103119e+04	2.998007e+02	-7.721816e-01	8.383383e-02	1.844973e-05	0.000000e+00	0.000000e+00	0.000000e+00	0.000000e+00	
1.001718e+00	-2.772679e-03	1.289137e-01	1.644621e+00	2.219215e+00	2.778491e+04	1.110213e+04	3.000113e+02	-9.437823e-02	6.170735e-02	1.845970e-05	0.000000e+00	0.000000e+00	0.000000e+00	0.000000e+00	
1.001919e+00	-3.275253e-03	1.289371e-01	1.865857e+00	1.950455e+00	2.779068e+04	1.110497e+04	3.000336e+02	-6.723116e-02	6.028704e-02	1.846075e-05	0.000000e+00	0.000000e+00	0.000000e+00	0.000000e+00	
1.002507e+00	-3.457732e-03	1.289680e-01	1.862459e+00	1.760964e+00	2.779693e+04	1.110858e+04	3.000592e+02	-3.270059e-02	5.723214e-02	1.846196e-05	0.000000e+00	0.000000e+00	0.000000e+00	0.000000e+00	
1.003373e+00	-3.640070e-03	1.289596e-01	1.904570e+00	1.627254e+00	2.779548e+04	1.110846e+04	3.000755e+02	-3.390744e-02	5.593723e-02	1.846273e-05	0.000000e+00	0.000000e+00	0.000000e+00	0.000000e+00	
1.004031e+00	-2.690146e-03	1.289445e-01	1.464281e+00	1.571793e+00	2.778814e+04	1.110810e+04	3.001010e+02	-3.733408e-02	4.797160e-02	1.846394e-05	0.000000e+00	0.000000e+00	0.000000e+00	0.000000e+00	
1.003848e+00	-4.354103e-05	1.290391e-01	-2.767051e-01	1.310892e+00	2.779933e+04	1.111695e+04	3.001199e+02	4.722078e-02	2.989614e-02	1.846484e-05	0.000000e+00	0.000000e+00	0.000000e+00	0.000000e+00	
1.004046e+00	-1.466409e-03	1.288866e-01	9.555374e-01	1.472950e+00	2.777121e+04	1.110370e+04	3.001168e+02	-7.937458e-02	3.922467e-02	1.846469e-05	0.000000e+00	0.000000e+00	0.000000e+00	0.000000e+00	
1.004435e+00	-6.775530e-04	1.289485e-01	4.794880e-01	1.418280e+00	2.778228e+04	1.110944e+04	3.001276e+02	-2.457315e-02	3.343060e-02	1.846520e-05	0.000000e+00	0.000000e+00	0.000000e+00	0.000000e+00	
1.004469e+00	-2.076552e-03	1.289964e-01	1.249228e+00	1.508868e+00	2.779702e+04	1.111286e+04	3.001088e+02	8.152227e-03	4.372648e-02	1.846431e-05	0.000000e+00	0.000000e+00	0.000000e+00	0.000000e+00	
1.003386e+00	4.312316e-04	1.289319e-01	-8.550169e-01	1.094443e+00	2.777312e+04	1.110625e+04	3.000804e+02	-5.496733e-02	3.101860e-02	1.846297e-05	0.000000e+00	0.000000e+00	0.000000e+00	0.000000e+00	
1.002902e+00	7.781591e-04	1.290971e-01	-5.162149e-01	1.025077e+00	2.780473e+04	1.111985e+04	3.000632e+02	7.495089e-02	2.560142e-02	1.846216e-05	0.000000e+00	0.000000e+00	0.000000e+00	0.000000e+00	
1.004067e+00	6.420536e-04	1.289683e-01	-8.908999e-01	1.127458e+00	2.778033e+04	1.110893e+04	3.000680e+02	-2.939996e-02	3.208516e-02	1.846238e-05	0.000000e+00	0.000000e+00	0.000000e+00	0.000000e+00	
1.002427e+00	1.073637e-03	1.293481e-01	1.571767e+00	2.425561e+00	2.786680e+04	1.113380e+04	2.998568e+02	2.082565e-01	6.436891e-02	1.845239e-05	0.000000e+00	0.000000e+00	0.000000e+00	0.000000e+00	
1.001388e+00	-6.560501e-04	1.279273e-01	-1.339207e+00	2.556343e+00	2.757199e+04	1.101578e+04	2.999729e+02	-9.194136e-01	6.497206e-02	1.845788e-05	0.000000e+00	0.000000e+00	0.000000e+00	0.000000e+00	
1.001053e+00	-8.534417e-04	1.286447e-01	-1.934014e+00	4.649610e+00	2.774323e+04	1.105787e+04	2.994399e+02	-5.172525e-01	1.128425e-01	1.843265e-05	0.000000e+00	0.000000e+00	0.000000e+00	0.000000e+00	
1.001941e+00	8.121575e-04	1.296828e-01	2.197513e+00	3.393495e+00	2.795172e+04	1.115548e+04	2.996653e+02	4.153672e-01	8.983415e-02	1.844332e-05	0.000000e+00	0.000000e+00	0.000000e+00	0.000000e+00	
1.001892e+00	3.560477e-04	1.291126e-01	-2.403755e-01	1.503505e+00	2.781455e+04	1.112223e+04	3.000913e+02	9.764479e-02	3.395794e-02	1.846348e-05	0.000000e+00	0.000000e+00	0.000000e+00	0.000000e+00	
1.001817e+00	-5.548929e-05	1.296441e-01	-1.754568e+00	1.152094e+00	2.793467e+04	1.116707e+04	3.000661e+02	5.260855e-01	4.662339e-02	1.846229e-05	0.000000e+00	0.000000e+00	0.000000e+00	0.000000e+00	
1.001455e+00	-2.665346e-04	1.280605e-01	-1.939911e+00	1.724186e+00	2.759753e+04	1.102849e+04	3.000069e+02	-7.979088e-01	5.836783e-02	1.845949e-05	0.000000e+00	0.000000e+00	0.000000e+00	0.000000e+00	
1.000704e+00	-1.000577e-03	1.296135e-01	-1.592809e+00	7.332612e+00	2.798125e+04	1.110562e+04	2.984852e+02	-6.103003e-02	1.671514e-01	1.838740e-05	0.000000e+00	0.000000e+00	0.000000e+00	0.000000e+00	
1.000349e+00	-1.278296e-03	1.283913e-01	2.359981e+00	9.781607e+00	2.776699e+04	1.094908e+04	2.970792e+02	-1.556663e+00	2.268170e-01	1.832063e-05	0.000000e+00	0.000000e+00	0.000000e+00	0.000000e+00	
3.124498e-03	-5.578784e-02	1.245239e-01	3.511031e+00	-1.161361e+01	2.703642e+04	1.057814e+04	2.959287e+02	-5.100647e+00	2.825293e-01	1.826588e-05	0.000000e+00	0.000000e+00	0.000000e+00	0.000000e+00	
2.537646e-03	-5.368053e-02	1.244870e-01	3.104650e+00	-1.175491e+01	2.702964e+04	1.057437e+04	2.959110e+02	-5.136654e+00	2.832099e-01	1.826503e-05	0.000000e+00	0.000000e+00	0.000000e+00	0.000000e+00	
2.003081e-03	-5.156466e-02	1.247395e-01	2.672380e+00	-1.175560e+01	2.708178e+04	1.059969e+04	2.960190e+02	-4.894777e+00	2.802035e-01	1.827018e-05	0.000000e+00	0.000000e+00	0.000000e+00	0.000000e+00	
1.004415e+00	-3.688692e-03	1.289597e-01	1.853857e+00	1.549468e+00	2.779512e+04	1.110899e+04	3.000896e+02	-2.878836e-02	5.394984e-02	1.846340e-05	0.000000e+00	0.000000e+00	0.000000e+00	0.000000e+00	
1.000730e+00	-1.898455e-03	1.293978e-01	2.307655e+00	4.721377e+00	2.790851e+04	1.112072e+04	2.993894e+02	8.324819e-02	1.170824e-01	1.843026e-05	0.000000e+00	0.000000e+00	0.000000e+00	0.000000e+00	
1.000388e+00	-1.645695e-03	1.273353e-01	4.824792e+00	5.921620e+00	2.749673e+04	1.090705e+04	2.983932e+02	-1.958152e+00	1.732234e-01	1.838303e-05	0.000000e+00	0.000000e+00	0.000000e+00	0.000000e+00	
1.001191e+00	-2.542617e-03	1.288571e-01	1.860604e+00	2.807706e+00	2.777685e+04	1.109313e+04	2.998998e+02	-1.803512e-01	7.529361e-02	1.845442e-05	0.000000e+00	0.000000e+00	0.000000e+00	0.000000e+00	
1.000749e+00	-2.358020e-03	1.292258e-01	2.063316e+00	3.385734e+00	2.786056e+04	1.111989e+04	2.997655e+02	7.533057e-02	8.839829e-02	1.844807e-05	0.000000e+00	0.000000e+00	0.000000e+00	0.000000e+00	
1.001335e+00	-3.189652e-03	1.288948e-01	2.043138e+00	2.267067e+00	2.778404e+04	1.109916e+04	2.999751e+02	-1.227254e-01	6.819326e-02	1.845798e-05	0.000000e+00	0.000000e+00	0.000000e+00	0.000000e+00	
1.001602e+00	-3.726418e-03	1.288543e-01	2.115743e+00	1.972678e+00	2.777504e+04	1.109703e+04	3.000118e+02	-1.430975e-01	6.465313e-02	1.845972e-05	0.000000e+00	0.000000e+00	0.000000e+00	0.000000e+00	
1.000046e+00	-1.489967e-03	1.294801e-01	6.349669e+00	5.591489e+00	2.797032e+04	1.107756e+04	2.980379e+02	-3.291279e-01	1.888068e-01	1.836617e-05	0.000000e+00	0.000000e+00	0.000000e+00	0.000000e+00	
9.997621e-01	-1.104660e-03	1.310441e-01	7.150657e+00	2.246961e+00	2.828762e+04	1.122930e+04	2.985147e+02	1.120673e+00	1.651371e-01	1.838880e-05	0.000000e+00	0.000000e+00	0.000000e+00	0.000000e+00	
1.002225e+00	-3.822888e-03	1.289293e-01	2.104371e+00	1.804174e+00	2.779073e+04	1.110437e+04	3.000356e+02	-7.292327e-02	6.191422e-02	1.846085e-05	0.000000e+00	0.000000e+00	0.000000e+00	0.000000e+00	
1.002881e+00	-4.153112e-03	1.289285e-01	2.153685e+00	1.653549e+00	2.779092e+04	1.110493e+04	3.000524e+02	-6.761958e-02	6.064758e-02	1.846164e-05	0.000000e+00	0.000000e+00	0.000000e+00	0.000000e+00	
1.003906e+00	-4.436818e-03	1.289604e-01	2.234665e+00	1.544659e+00	2.779904e+04	1.110817e+04	3.000658e+02	-3.664845e-02	6.066049e-02	1.846227e-05	0.000000e+00	0.000000e+00	0.000000e+00	0.000000e+00	
1.004970e+00	-2.913359e-03	1.289719e-01	1.555411e+00	1.500687e+00	2.779453e+04	1.111057e+04	3.001037e+02	-1.375880e-02	4.825499e-02	1.846407e-05	0.000000e+00	0.000000e+00	0.000000e+00	0.000000e+00	
1.004617e+00	1.024790e-04	1.289283e-01	-2.644732e-01	1.298462e+00	2.777503e+04	1.110729e+04	3.001166e+02	-4.507705e-02	2.959469e-02	1.846468e-05	0.000000e+00	0.000000e+00	0.000000e+00	0.000000e+00	
1.004844e+00	-1.371955e-03	1.290211e-01	9.505891e-01	1.465090e+00	2.780007e+04	1.111530e+04	3.001172e+02	3.146021e-02	3.897649e-02	1.846471e-05	0.000000e+00	0.000000e+00	0.000000e+00	0.000000e+00	
1.005256e+00	-5.458067e-04	1.289623e-01	4.311031e-01	1.401182e+00	2.778494e+04	1.111064e+04	3.001280e+02	-1.304909e-02	3.273175e-02	1.846522e-05	0.000000e+00	0.000000e+00	0.000000e+00	0.000000e+00	
1.005376e+00	-2.094879e-03	1.289478e-01	1.283890e+00	1.454927e+00	2.778643e+04	1.110873e+04	3.001103e+02	-3.128797e-02	4.333012e-02	1.846438e-05	0.000000e+00	0.000000e+00	0.000000e+00	0.000000e+00	
1.005572e+00	-3.725669e-03	1.289584e-01	1.866951e+00	1.467974e+00	2.779484e+04	1.110919e+04	3.000979e+02	-2.691995e-02	5.303066e-02	1.846380e-05	0.000000e+00	0.000000e+00	0.000000e+00	0.000000e+00	
1.004884e+00	9.357287e-04	1.288900e-01	-7.627740e-01	1.071553e+00	2.776308e+04	1.110255e+04	3.000777e+02	-9.038914e-02	2.938626e-02	1.846284e-05	0.000000e+00	0.000000e+00	0.000000e+00	0.000000e+00	
1.003503e+00	1.073676e-03	1.286816e-01	-4.538692e-01	1.229975e+00	2.771425e+04	1.108303e+04	3.000353e+02	-2.768671e-01	2.934039e-02	1.846083e-05	0.000000e+00	0.000000e+00	0.000000e+00	0.000000e+00	
1.002952e+00	1.415266e-03	1.290932e-01	1.040539e+00	1.931991e+00	2.780444e+04	1.111431e+04	2.999229e+02	2.204697e-02	4.896154e-02	1.845552e-05	0.000000e+00	0.000000e+00	0.000000e+00	0.000000e+00	
1.004268e+00	1.551755e-03	1.291402e-01	-3.221354e-01	1.239541e+00	2.781297e+04	1.112265e+04	3.000385e+02	1.016660e-01	2.855972e-02	1.846099e-05	0.000000e+00	0.000000e+00	0.000000e+00	0.000000e+00	
1.002668e+00	1.726446e-03	1.290353e-01	4.214716e+00	4.221176e+00	2.783179e+04	1.107756e+04	2.990654e+02	-3.290773e-01	1.333447e-01	1.841490e-05	0.000000e+00	0.000000e+00	0.000000e+00	0.000000e+00	
1.001994e+00	1.345328e-03	1.299193e-01	5.055430e+00	5.865371e+00	2.805394e+04	1.112927e+04	2.984170e+02	1.649718e-01	1.721061e-01	1.838416e-05	0.000000e+00	0.000000e+00	0.000000e+00	0.000000e+00	
1.001122e+00	-4.540499e-04	1.319574e-01	-4.075511e+00	2.772620e+00	2.845586e+04	1.134552e+04	2.995167e+02	2.231010e+00	1.076676e-01	1.843629e-05	0.000000e+00	0.000000e+00	0.000000e+00	0.000000e+00	
1.000804e+00	-6.170562e-04	1.254165e-01	-4.027477e+00	5.166461e+00	2.706627e+04	1.075807e+04	2.988204e+02	-3.381536e+00	1.507250e-01	1.840329e-05	0.000000e+00	0.000000e+00	0.000000e+00	0.000000e+00	
1.001559e+00	1.055273e-03	1.295098e-01	6.024102e+00	7.551503e+00	2.800679e+04	1.105861e+04	2.974598e+02	-5.101374e-01	2.157297e-01	1.833872e-05	0.000000e+00	0.000000e+00	0.000000e+00	0.000000e+00	
1.001506e+00	6.017670e-04	1.291101e-01	3.942483e+00	5.024141e+00	2.785824e+04	1.108012e+04	2.989610e+02	-3.046977e-01	1.427036e-01	1.840996e-05	0.000000e+00	0.000000e+00	0.000000e+00	0.000000e+00	
1.001483e+00	1.482173e-04	1.279202e-01	2.444521e-01	1.926390e+00	2.756071e+04	1.101839e+04	3.000608e+02	-8.944637e-01	4.371398e-02	1.846204e-05	0.000000e+00	0.000000e+00	0.000000e+00	0.000000e+00	
1.001149e+00	-4.611761e-05	1.287102e-01	-4.323418e-01	2.603566e+00	2.773399e+04	1.108277e+04	2.999616e+02	-2.793211e-01	5.905826e-02	1.845735e-05	0.000000e+00	0.000000e+00	0.000000e+00	0.000000e+00	
1.000463e+00	-6.913599e-04	1.334907e-01	-9.944919e+00	5.972666e+00	2.889694e+04	1.135715e+04	2.963800e+02	2.342171e+00	2.518005e-01	1.828737e-05	0.000000e+00	0.000000e+00	0.000000e+00	0.000000e+00	
1.000000e+00	-1.000000e-03	1.134711e-01	-1.557057e+00	6.076128e+00	2.448834e+04	9.725989e+03	2.985925e+02	-1.324227e+01	1.595748e-01	1.839249e-05	0.000000e+00	0.000000e+00	0.000000e+00	0.000000e+00	
4.487486e-03	-6.008979e-02	1.245772e-01	3.946635e+00	-1.154790e+01	2.704951e+04	1.058071e+04	2.958737e+02	-5.076138e+00	2.840863e-01	1.826326e-05	0.000000e+00	0.000000e+00	0.000000e+00	0.000000e+00	
6.075662e-03	-6.441143e-02	1.243706e-01	4.513332e+00	-1.148042e+01	2.700849e+04	1.055869e+04	2.957485e+02	-5.286484e+00	2.876979e-01	1.825730e-05	0.000000e+00	0.000000e+00	0.000000e+00	0.000000e+00	
1.063123e-04	-5.525164e-02	1.249074e-01	3.235450e+00	-1.143709e+01	2.711490e+04	1.061975e+04	2.961805e+02	-4.703110e+00	2.758148e-01	1.827787e-05	0.000000e+00	0.000000e+00	0.000000e+00	0.000000e+00	
2.284715e-05	-5.898573e-02	1.249528e-01	3.675661e+00	-1.126639e+01	2.712383e+04	1.062474e+04	2.962120e+02	-4.655435e+00	2.748859e-01	1.827937e-05	0.000000e+00	0.000000e+00	0.000000e+00	0.000000e+00	
-3.488722e-04	-5.288381e-02	1.249504e-01	2.861989e+00	-1.147636e+01	2.712282e+04	1.062520e+04	2.962306e+02	-4.651021e+00	2.743494e-01	1.828026e-05	0.000000e+00	0.000000e+00	0.000000e+00	0.000000e+00	
-2.451572e-03	-5.436456e-02	1.251981e-01	3.007553e+00	-1.125767e+01	2.717284e+04	1.065223e+04	2.963966e+02	-4.392768e+00	2.696717e-01	1.828816e-05	0.000000e+00	0.000000e+00	0.000000e+00	0.000000e+00	
1.078855e-03	-4.719739e-02	1.247638e-01	2.133936e+00	-1.170490e+01	2.708362e+04	1.060653e+04	2.961522e+02	-4.829461e+00	2.764221e-01	1.827653e-05	0.000000e+00	0.000000e+00	0.000000e+00	0.000000e+00	
-1.934897e-03	-4.938241e-02	1.251593e-01	2.383410e+00	-1.136138e+01	2.716288e+04	1.064981e+04	2.964211e+02	-4.415955e+00	2.687304e-01	1.828932e-05	0.000000e+00	0.000000e+00	0.000000e+00	0.000000e+00	
1.005020e+00	-4.607713e-03	1.289815e-01	2.208797e+00	1.458606e+00	2.780353e+04	1.111055e+04	3.000809e+02	-1.393525e-02	5.909481e-02	1.846299e-05	0.000000e+00	0.000000e+00	0.000000e+00	0.000000e+00	
1.001530e+00	-4.190820e-03	1.289314e-01	2.368850e+00	1.879260e+00	2.779390e+04	1.110338e+04	3.000038e+02	-8.245987e-02	6.754220e-02	1.845934e-05	0.000000e+00	0.000000e+00	0.000000e+00	0.000000e+00	
1.000302e+00	-2.224779e-03	1.280538e-01	3.261547e+00	3.870248e+00	2.761863e+04	1.100744e+04	2.994500e+02	-9.990433e-01	1.139348e-01	1.843313e-05	0.000000e+00	0.000000e+00	0.000000e+00	0.000000e+00	
1.000760e+00	-3.043613e-03	1.289811e-01	2.410999e+00	2.777319e+00	2.780773e+04	1.110212e+04	2.998542e+02	-9.446796e-02	8.214126e-02	1.845226e-05	0.000000e+00	0.000000e+00	0.000000e+00	0.000000e+00	
1.001004e+00	-3.669324e-03	1.288671e-01	2.317682e+00	2.140457e+00	2.778055e+04	1.109677e+04	2.999750e+02	-1.455466e-01	7.050957e-02	1.845798e-05	0.000000e+00	0.000000e+00	0.000000e+00	0.000000e+00	
9.996113e-01	-1.963757e-03	1.272064e-01	4.309057e+00	2.654719e+00	2.743552e+04	1.093394e+04	2.994319e+02	-1.701325e+00	1.146951e-01	1.843227e-05	0.000000e+00	0.000000e+00	0.000000e+00	0.000000e+00	
9.990485e-01	-1.418589e-03	1.277588e-01	4.550619e+00	2.227689e+00	2.755393e+04	1.098138e+04	2.994308e+02	-1.247996e+00	1.143223e-01	1.843222e-05	0.000000e+00	0.000000e+00	0.000000e+00	0.000000e+00	
1.002251e+00	-4.526841e-03	1.289919e-01	2.358462e+00	1.680617e+00	2.780661e+04	1.110964e+04	3.000322e+02	-2.260333e-02	6.465518e-02	1.846069e-05	0.000000e+00	0.000000e+00	0.000000e+00	0.000000e+00	
1.002924e+00	-4.934728e-03	1.289710e-01	2.392366e+00	1.590306e+00	2.780275e+04	1.110830e+04	3.000448e+02	-3.538564e-02	6.414437e-02	1.846128e-05	0.000000e+00	0.000000e+00	0.000000e+00	0.000000e+00	
1.001714e+00	-5.105190e-03	1.288463e-01	2.575661e+00	1.711621e+00	2.777754e+04	1.109617e+04	3.000071e+02	-1.512886e-01	6.912351e-02	1.845950e-05	0.000000e+00	0.000000e+00	0.000000e+00	0.000000e+00	
1.004686e+00	-5.681833e-03	1.289863e-01	2.515489e+00	1.425620e+00	2.780786e+04	1.111018e+04	3.000599e+02	-1.743940e-02	6.455186e-02	1.846200e-05	0.000000e+00	0.000000e+00	0.000000e+00	0.000000e+00	
1.003651e+00	-5.464389e-03	1.289826e-01	2.539586e+00	1.504006e+00	2.780731e+04	1.110942e+04	3.000478e+02	-2.475612e-02	6.589797e-02	1.846142e-05	0.000000e+00	0.000000e+00	0.000000e+00	0.000000e+00	
1.006035e+00	-2.799011e-03	1.289739e-01	1.544913e+00	1.434619e+00	2.779449e+04	1.111090e+04	3.001082e+02	-1.055939e-02	4.706964e-02	1.846428e-05	0.000000e+00	0.000000e+00	0.000000e+00	0.000000e+00	
1.005490e+00	2.810122e-04	1.290364e-01	-2.169526e-01	1.276235e+00	2.779817e+04	1.111667e+04	3.001186e+02	4.455627e-02	2.888746e-02	1.846478e-05	0.000000e+00	0.000000e+00	0.000000e+00	0.000000e+00	
1.005747e+00	-1.256405e-03	1.289631e-01	9.094199e-01	1.421710e+00	2.778710e+04	1.111042e+04	3.001205e+02	-1.512566e-02	3.768175e-02	1.846486e-05	0.000000e+00	0.000000e+00	0.000000e+00	0.000000e+00	
1.006184e+00	-3.873813e-04	1.289870e-01	4.263042e-01	1.366580e+00	2.778999e+04	1.111282e+04	3.001294e+02	7.747250e-03	3.195591e-02	1.846529e-05	0.000000e+00	0.000000e+00	0.000000e+00	0.000000e+00	
1.006337e+00	-1.848785e-03	1.289998e-01	1.218739e+00	1.404450e+00	2.779684e+04	1.111337e+04	3.001147e+02	1.305207e-02	4.150675e-02	1.846459e-05	0.000000e+00	0.000000e+00	0.000000e+00	0.000000e+00	
1.006728e+00	-3.672990e-03	1.289749e-01	1.816172e+00	1.391904e+00	2.779743e+04	1.111085e+04	3.001046e+02	-1.101880e-02	5.108629e-02	1.846411e-05	0.000000e+00	0.000000e+00	0.000000e+00	0.000000e+00	
1.006232e+00	-4.736774e-03	1.289969e-01	2.168152e+00	1.386361e+00	2.780637e+04	1.111228e+04	3.000918e+02	2.593015e-03	5.744711e-02	1.846350e-05	0.000000e+00	0.000000e+00	0.000000e+00	0.000000e+00	
1.005839e+00	1.023377e-03	1.289729e-01	-6.317534e-01	1.072390e+00	2.778108e+04	1.111003e+04	3.000868e+02	-1.890583e-02	2.778902e-02	1.846327e-05	0.000000e+00	0.000000e+00	0.000000e+00	0.000000e+00	
1.005252e+00	1.788946e-03	1.288869e-01	-2.417427e-01	1.058815e+00	2.775828e+04	1.110148e+04	3.000562e+02	-1.005451e-01	2.426585e-02	1.846182e-05	0.000000e+00	0.000000e+00	0.000000e+00	0.000000e+00	
1.003545e+00	2.071145e-03	1.287121e-01	2.580036e+00	2.630346e+00	2.773530e+04	1.107303e+04	2.996934e+02	-3.724367e-01	8.248366e-02	1.844465e-05	0.000000e+00	0.000000e+00	0.000000e+00	0.000000e+00	
1.004538e+00	2.467642e-03	1.289805e-01	2.162316e+00	2.108220e+00	2.778791e+04	1.110102e+04	2.998259e+02	-1.049586e-01	6.745198e-02	1.845092e-05	0.000000e+00	0.000000e+00	0.000000e+00	0.000000e+00	
1.002110e+00	2.027064e-03	1.305827e-01	7.301927e+00	7.808551e+00	2.826649e+04	1.113155e+04	2.969616e+02	1.866720e-01	2.369860e-01	1.831504e-05	0.000000e+00	0.000000e+00	0.000000e+00	0.000000e+00	
1.002878e+00	2.566443e-03	1.308764e-01	6.909602e+00	6.593155e+00	2.830327e+04	1.118192e+04	2.976360e+02	6.679868e-01	2.109958e-01	1.834709e-05	0.000000e+00	0.000000e+00	0.000000e+00	0.000000e+00	
1.001668e+00	1.576662e-03	1.318936e-01	7.379793e+00	9.123809e+00	2.857661e+04	1.122183e+04	2.963946e+02	1.049277e+00	2.577908e-01	1.828806e-05	0.000000e+00	0.000000e+00	0.000000e+00	0.000000e+00	
1.001199e+00	1.345809e-03	1.313047e-01	7.721535e+00	1.029927e+01	2.848332e+04	1.114094e+04	2.955780e+02	2.764674e-01	2.844410e-01	1.824917e-05	0.000000e+00	0.000000e+00	0.000000e+00	0.000000e+00	
1.000846e+00	-1.976378e-04	1.249586e-01	-1.760975e-01	2.725209e+00	2.692483e+04	1.075799e+04	2.999132e+02	-3.382309e+00	6.294945e-02	1.845506e-05	0.000000e+00	0.000000e+00	0.000000e+00	0.000000e+00	
1.000592e+00	-3.587028e-04	1.263119e-01	-2.653200e+00	4.107663e+00	2.722691e+04	1.085290e+04	2.993173e+02	-2.475542e+00	1.116226e-01	1.842684e-05	0.000000e+00	0.000000e+00	0.000000e+00	0.000000e+00	
1.001122e+00	8.648851e-04	1.326781e-01	6.749320e+00	1.000550e+01	2.874878e+04	1.127994e+04	2.961678e+02	1.604431e+00	2.636684e-01	1.827727e-05	0.000000e+00	0.000000e+00	0.000000e+00	0.000000e+00	
1.001137e+00	3.333341e-04	1.326827e-01	4.533146e+00	7.244502e+00	2.866193e+04	1.135469e+04	2.981201e+02	2.318613e+00	1.860795e-01	1.837008e-05	0.000000e+00	0.000000e+00	0.000000e+00	0.000000e+00	
1.000841e+00	1.522451e-04	1.303569e-01	7.684214e+00	8.946204e+00	2.823230e+04	1.107953e+04	2.960859e+02	-3.102512e-01	2.622667e-01	1.827337e-05	0.000000e+00	0.000000e+00	0.000000e+00	0.000000e+00	
1.000364e+00	-3.369519e-04	1.243188e-01	4.672586e+00	1.636226e+01	2.709629e+04	1.037269e+04	2.906597e+02	-7.063597e+00	4.004873e-01	1.801382e-05	0.000000e+00	0.000000e+00	0.000000e+00	0.000000e+00	
1.000000e+00	0.000000e+00	2.422255e-01	1.938147e+01	1.030283e+02	5.862256e+04	1.437445e+04	2.067291e+02	3.116992e+01	1.501546e+00	1.366482e-05	0.000000e+00	0.000000e+00	0.000000e+00	0.000000e+00	
9.971298e-04	-6.378462e-02	1.249151e-01	4.203686e+00	-1.115782e+01	2.711749e+04	1.061937e+04	2.961518e+02	-4.706727e+00	2.766813e-01	1.827650e-05	0.000000e+00	0.000000e+00	0.000000e+00	0.000000e+00	
7.917903e-03	-6.881664e-02	1.242986e-01	5.051198e+00	-1.137044e+01	2.699558e+04	1.054915e+04	2.956526e+02	-5.377625e+00	2.903902e-01	1.825273e-05	0.000000e+00	0.000000e+00	0.000000e+00	0.000000e+00	
1.006240e-02	-7.337706e-02	1.241985e-01	5.590610e+00	-1.123980e+01	2.697684e+04	1.053697e+04	2.955492e+02	-5.494022e+00	2.932794e-01	1.824780e-05	0.000000e+00	0.000000e+00	0.000000e+00	0.000000e+00	
1.251909e-02	-7.806211e-02	1.241006e-01	6.127473e+00	-1.108472e+01	2.695865e+04	1.052493e+04	2.954444e+02	-5.609008e+00	2.961860e-01	1.824280e-05	0.000000e+00	0.000000e+00	0.000000e+00	0.000000e+00	
1.529738e-02	-8.284177e-02	1.240017e-01	6.665851e+00	-1.089135e+01	2.694003e+04	1.051302e+04	2.953455e+02	-5.722798e+00	2.988997e-01	1.823809e-05	0.000000e+00	0.000000e+00	0.000000e+00	0.000000e+00	
1.843145e-02	-8.771560e-02	1.239159e-01	7.197604e+00	-1.064619e+01	2.692362e+04	1.050290e+04	2.952653e+02	-5.819526e+00	3.010600e-01	1.823427e-05	0.000000e+00	0.000000e+00	0.000000e+00	0.000000e+00	
2.196161e-02	-9.269141e-02	1.238579e-01	7.700663e+00	-1.035473e+01	2.691234e+04	1.049604e+04	2.952108e+02	-5.885018e+00	3.024790e-01	1.823166e-05	0.000000e+00	0.000000e+00	0.000000e+00	0.000000e+00	
2.590787e-02	-9.776099e-02	1.238273e-01	8.171728e+00	-1.004170e+01	2.690662e+04	1.049193e+04	2.951679e+02	-5.924370e+00	3.035665e-01	1.822962e-05	0.000000e+00	0.000000e+00	0.000000e+00	0.000000e+00	
3.032086e-02	-1.029565e-01	1.237971e-01	8.622142e+00	-9.712182e+00	2.690096e+04	1.048790e+04	2.951264e+02	-5.962879e+00	3.046159e-01	1.822764e-05	0.000000e+00	0.000000e+00	0.000000e+00	0.000000e+00	
3.519676e-02	-1.082171e-01	1.237631e-01	9.059654e+00	-9.350472e+00	2.689425e+04	1.048377e+04	2.950916e+02	-6.002250e+00	3.054763e-01	1.822598e-05	0.000000e+00	0.000000e+00	0.000000e+00	0.000000e+00	
4.055945e-02	-1.135161e-01	1.237466e-01	9.472866e+00	-8.953443e+00	2.689079e+04	1.048172e+04	2.950732e+02	-6.021858e+00	3.058785e-01	1.822510e-05	0.000000e+00	0.000000e+00	0.000000e+00	0.000000e+00	
4.640551e-02	-1.188044e-01	1.237498e-01	9.853072e+00	-8.527265e+00	2.689099e+04	1.048198e+04	2.950727e+02	-6.019421e+00	3.057789e-01	1.822508e-05	0.000000e+00	0.000000e+00	0.000000e+00	0.000000e+00	
5.272092e-02	-1.240344e-01	1.237720e-01	1.019280e+01	-8.076217e+00	2.689462e+04	1.048458e+04	2.950929e+02	-5.994600e+00	3.051018e-01	1.822604e-05	0.000000e+00	0.000000e+00	0.000000e+00	0.000000e+00	