TITLE = "Visualization of the volumetric solution"
VARIABLES = "x""y""Conservative_1""Conservative_2""Conservative_3""Conservative_4""Pressure""Temperature""C<sub>p</sub>""Mach""<greek>m</greek>""C<sub>f</sub>_x""C<sub>f</sub>_y""h""y<sup>+</sup>"
ZONE NODES= 5233, ELEMENTS= 10216, DATAPACKING=POINT, ZONETYPE=FEQUADRILATERAL
1.002198e+00	-1.286122e-03	1.290918e-01	1.603861e-01	1.824590e+00	2.781085e+04	1.111914e+04	3.000564e+02	6.817066e-02	4.085899e-02	1.846183e-05	0.000000e+00	0.000000e+00	0.000000e+00	0.000000e+00	
1.002611e+00	-8.976444e-04	1.290524e-01	-3.236179e-02	1.533275e+00	2.780075e+04	1.111665e+04	3.000809e+02	4.439439e-02	3.422022e-02	1.846299e-05	0.000000e+00	0.000000e+00	0.000000e+00	0.000000e+00	
1.002290e+00	-1.596632e-03	1.289503e-01	3.160788e-01	1.811304e+00	2.778038e+04	1.110691e+04	3.000551e+02	-4.872914e-02	4.106136e-02	1.846177e-05	0.000000e+00	0.000000e+00	0.000000e+00	0.000000e+00	
1.001804e+00	-1.528817e-03	1.288892e-01	2.467686e-01	2.260651e+00	2.776982e+04	1.109990e+04	3.000082e+02	-1.156445e-01	5.081289e-02	1.845955e-05	0.000000e+00	0.000000e+00	0.000000e+00	0.000000e+00	
1.002469e+00	-1.988030e-03	1.289699e-01	4.715336e-01	1.777888e+00	2.778476e+04	1.110866e+04	3.000568e+02	-3.198799e-02	4.107019e-02	1.846185e-05	0.000000e+00	0.000000e+00	0.000000e+00	0.000000e+00	
1.002683e+00	-2.483155e-03	1.289683e-01	6.958941e-01	1.747591e+00	2.778515e+04	1.110857e+04	3.000582e+02	-3.281777e-02	4.200154e-02	1.846192e-05	0.000000e+00	0.000000e+00	0.000000e+00	0.000000e+00	
1.002758e+00	-1.443513e-03	1.289020e-01	3.559283e-01	1.596102e+00	2.776865e+04	1.110331e+04	3.000705e+02	-8.310622e-02	3.653249e-02	1.846250e-05	0.000000e+00	0.000000e+00	0.000000e+00	0.000000e+00	
1.003175e+00	-1.027913e-03	1.289592e-01	2.282952e-01	1.477032e+00	2.778009e+04	1.110857e+04	3.000794e+02	-3.282754e-02	3.337316e-02	1.846292e-05	0.000000e+00	0.000000e+00	0.000000e+00	0.000000e+00	
1.003069e+00	-1.986874e-03	1.289653e-01	5.630169e-01	1.614763e+00	2.778268e+04	1.110854e+04	3.000643e+02	-3.316165e-02	3.818501e-02	1.846220e-05	0.000000e+00	0.000000e+00	0.000000e+00	0.000000e+00	
1.003125e+00	-6.312416e-04	1.289351e-01	-1.395470e-01	1.413906e+00	2.777440e+04	1.110663e+04	3.000831e+02	-5.137153e-02	3.173106e-02	1.846309e-05	0.000000e+00	0.000000e+00	0.000000e+00	0.000000e+00	
1.002158e+00	-9.440978e-04	1.288155e-01	-8.057516e-02	1.741423e+00	2.775144e+04	1.109586e+04	3.000704e+02	-1.542780e-01	3.897087e-02	1.846249e-05	0.000000e+00	0.000000e+00	0.000000e+00	0.000000e+00	
1.001764e+00	-1.150388e-03	1.287811e-01	6.507545e-03	2.264691e+00	2.774675e+04	1.109073e+04	3.000119e+02	-2.032568e-01	5.064547e-02	1.845973e-05	0.000000e+00	0.000000e+00	0.000000e+00	0.000000e+00	
1.002636e+00	-3.411714e-04	1.290634e-01	-8.970481e-01	1.218686e+00	2.780163e+04	1.111710e+04	3.000675e+02	4.869311e-02	3.376340e-02	1.846236e-05	0.000000e+00	0.000000e+00	0.000000e+00	0.000000e+00	
1.002142e+00	-6.052014e-04	1.290055e-01	-6.994272e-01	1.567704e+00	2.779185e+04	1.111217e+04	3.000689e+02	1.585906e-03	3.831904e-02	1.846242e-05	0.000000e+00	0.000000e+00	0.000000e+00	0.000000e+00	
1.001397e+00	-1.356825e-03	1.289973e-01	2.024603e-01	3.245301e+00	2.779963e+04	1.110346e+04	2.998528e+02	-8.168382e-02	7.261312e-02	1.845220e-05	0.000000e+00	0.000000e+00	0.000000e+00	0.000000e+00	
1.001942e+00	-1.946783e-03	1.288933e-01	4.379348e-01	2.118158e+00	2.777038e+04	1.110089e+04	3.000252e+02	-1.062030e-01	4.832697e-02	1.846036e-05	0.000000e+00	0.000000e+00	0.000000e+00	0.000000e+00	
1.001498e+00	-1.774251e-03	1.289735e-01	4.039724e-01	2.705984e+00	2.779122e+04	1.110488e+04	2.999465e+02	-6.809447e-02	6.109990e-02	1.845663e-05	0.000000e+00	0.000000e+00	0.000000e+00	0.000000e+00	
1.002115e+00	-2.381542e-03	1.288512e-01	6.909081e-01	1.960437e+00	2.776145e+04	1.109787e+04	3.000416e+02	-1.350308e-01	4.645658e-02	1.846113e-05	0.000000e+00	0.000000e+00	0.000000e+00	0.000000e+00	
1.002295e+00	-2.870120e-03	1.289296e-01	9.328070e-01	1.838697e+00	2.777896e+04	1.110499e+04	3.000516e+02	-6.703423e-02	4.605141e-02	1.846160e-05	0.000000e+00	0.000000e+00	0.000000e+00	0.000000e+00	
1.002914e+00	-3.002595e-03	1.289608e-01	9.530240e-01	1.698457e+00	2.778475e+04	1.110802e+04	3.000606e+02	-3.813569e-02	4.348914e-02	1.846203e-05	0.000000e+00	0.000000e+00	0.000000e+00	0.000000e+00	
1.003328e+00	-2.543199e-03	1.289375e-01	7.783685e-01	1.635235e+00	2.777775e+04	1.110601e+04	3.000607e+02	-5.727530e-02	4.044774e-02	1.846203e-05	0.000000e+00	0.000000e+00	0.000000e+00	0.000000e+00	
1.003366e+00	-1.527406e-03	1.290262e-01	4.541634e-01	1.488767e+00	2.779457e+04	1.111407e+04	3.000723e+02	1.974224e-02	3.473838e-02	1.846258e-05	0.000000e+00	0.000000e+00	0.000000e+00	0.000000e+00	
1.003708e+00	-7.493284e-04	1.290640e-01	5.208764e-02	1.387636e+00	2.780165e+04	1.111767e+04	3.000813e+02	5.413101e-02	3.098187e-02	1.846301e-05	0.000000e+00	0.000000e+00	0.000000e+00	0.000000e+00	
1.003725e+00	-2.040549e-03	1.289754e-01	6.738222e-01	1.533846e+00	2.778432e+04	1.110938e+04	3.000635e+02	-2.512623e-02	3.740565e-02	1.846217e-05	0.000000e+00	0.000000e+00	0.000000e+00	0.000000e+00	
1.003178e+00	-1.087642e-04	1.288739e-01	-7.041737e-01	1.174081e+00	2.775938e+04	1.110084e+04	3.000692e+02	-1.066491e-01	3.059132e-02	1.846244e-05	0.000000e+00	0.000000e+00	0.000000e+00	0.000000e+00	
1.002793e+00	2.361235e-04	1.291713e-01	-1.336142e+00	8.140017e-01	2.782138e+04	1.112476e+04	3.000234e+02	1.218414e-01	3.488208e-02	1.846027e-05	0.000000e+00	0.000000e+00	0.000000e+00	0.000000e+00	
1.001746e+00	-8.044838e-04	1.293721e-01	-8.611491e-01	2.041597e+00	2.787413e+04	1.114206e+04	3.000235e+02	2.871338e-01	4.932422e-02	1.846027e-05	0.000000e+00	0.000000e+00	0.000000e+00	0.000000e+00	
1.001384e+00	-9.959841e-04	1.291818e-01	-7.085924e-01	3.284861e+00	2.784066e+04	1.111878e+04	2.998378e+02	6.471250e-02	7.493767e-02	1.845148e-05	0.000000e+00	0.000000e+00	0.000000e+00	0.000000e+00	
1.002337e+00	5.839202e-04	1.284958e-01	-5.185710e-01	8.775732e-01	2.767208e+04	1.106722e+04	3.000404e+02	-4.279447e-01	2.284497e-02	1.846107e-05	0.000000e+00	0.000000e+00	0.000000e+00	0.000000e+00	
1.002260e+00	9.583311e-05	1.287192e-01	-1.461896e+00	7.554986e-01	2.772558e+04	1.108602e+04	3.000288e+02	-2.482482e-01	3.681665e-02	1.846052e-05	0.000000e+00	0.000000e+00	0.000000e+00	0.000000e+00	
1.002174e+00	-2.970126e-04	1.285684e-01	-1.403669e+00	1.061026e+00	2.769648e+04	1.107377e+04	3.000487e+02	-3.652865e-01	3.941177e-02	1.846147e-05	0.000000e+00	0.000000e+00	0.000000e+00	0.000000e+00	
1.001742e+00	-4.407128e-04	1.293743e-01	-1.999721e+00	1.385208e+00	2.787458e+04	1.114068e+04	2.999812e+02	2.739658e-01	5.415418e-02	1.845827e-05	0.000000e+00	0.000000e+00	0.000000e+00	0.000000e+00	
1.001042e+00	-1.161573e-03	1.283724e-01	6.859182e-03	4.640291e+00	2.767695e+04	1.103723e+04	2.995152e+02	-7.144079e-01	1.041875e-01	1.843621e-05	0.000000e+00	0.000000e+00	0.000000e+00	0.000000e+00	
1.003588e+00	-3.186387e-03	1.289741e-01	9.787802e-01	1.623226e+00	2.778702e+04	1.110924e+04	3.000627e+02	-2.646226e-02	4.232174e-02	1.846213e-05	0.000000e+00	0.000000e+00	0.000000e+00	0.000000e+00	
1.001098e+00	-1.591519e-03	1.291082e-01	7.778205e-01	4.088055e+00	2.783083e+04	1.110551e+04	2.996504e+02	-6.209553e-02	9.288137e-02	1.844262e-05	0.000000e+00	0.000000e+00	0.000000e+00	0.000000e+00	
1.000729e+00	-1.401201e-03	1.279055e-01	1.599970e+00	5.992306e+00	2.759403e+04	1.097746e+04	2.989806e+02	-1.285489e+00	1.398905e-01	1.841089e-05	0.000000e+00	0.000000e+00	0.000000e+00	0.000000e+00	
1.001594e+00	-2.240635e-03	1.291165e-01	6.313489e-01	2.406045e+00	2.782115e+04	1.111887e+04	2.999919e+02	6.560983e-02	5.548529e-02	1.845878e-05	0.000000e+00	0.000000e+00	0.000000e+00	0.000000e+00	
1.001149e+00	-2.064535e-03	1.281990e-01	1.024068e+00	3.059650e+00	2.762824e+04	1.103506e+04	2.998612e+02	-7.352022e-01	7.249956e-02	1.845259e-05	0.000000e+00	0.000000e+00	0.000000e+00	0.000000e+00	
1.001732e+00	-2.758116e-03	1.289262e-01	1.008949e+00	2.060210e+00	2.777987e+04	1.110379e+04	3.000270e+02	-7.854692e-02	5.124171e-02	1.846044e-05	0.000000e+00	0.000000e+00	0.000000e+00	0.000000e+00	
1.001938e+00	-3.259404e-03	1.289450e-01	1.207805e+00	1.825002e+00	2.778415e+04	1.110623e+04	3.000492e+02	-5.517883e-02	4.887559e-02	1.846149e-05	0.000000e+00	0.000000e+00	0.000000e+00	0.000000e+00	
1.002529e+00	-3.436486e-03	1.289674e-01	1.187543e+00	1.700483e+00	2.778817e+04	1.110860e+04	3.000611e+02	-3.259551e-02	4.631235e-02	1.846205e-05	0.000000e+00	0.000000e+00	0.000000e+00	0.000000e+00	
1.003398e+00	-3.610216e-03	1.289488e-01	1.202556e+00	1.608391e+00	2.778368e+04	1.110722e+04	3.000669e+02	-4.577390e-02	4.484789e-02	1.846233e-05	0.000000e+00	0.000000e+00	0.000000e+00	0.000000e+00	
1.004047e+00	-2.651942e-03	1.289536e-01	8.582869e-01	1.554184e+00	2.778095e+04	1.110749e+04	3.000634e+02	-4.315094e-02	3.964738e-02	1.846216e-05	0.000000e+00	0.000000e+00	0.000000e+00	0.000000e+00	
1.003834e+00	-6.968210e-06	1.290449e-01	-6.143375e-01	1.237536e+00	2.779575e+04	1.111534e+04	3.000630e+02	3.185472e-02	3.083162e-02	1.846214e-05	0.000000e+00	0.000000e+00	0.000000e+00	0.000000e+00	
1.004047e+00	-1.427305e-03	1.289071e-01	5.151741e-01	1.448625e+00	2.776855e+04	1.110375e+04	3.000704e+02	-7.885213e-02	3.434622e-02	1.846250e-05	0.000000e+00	0.000000e+00	0.000000e+00	0.000000e+00	
1.004428e+00	-6.338116e-04	1.289607e-01	9.970637e-02	1.375007e+00	2.777906e+04	1.110868e+04	3.000788e+02	-3.182014e-02	3.078363e-02	1.846289e-05	0.000000e+00	0.000000e+00	0.000000e+00	0.000000e+00	
1.004477e+00	-2.032883e-03	1.290045e-01	7.328607e-01	1.484354e+00	2.779037e+04	1.111190e+04	3.000638e+02	-1.038816e-03	3.695267e-02	1.846218e-05	0.000000e+00	0.000000e+00	0.000000e+00	0.000000e+00	
1.003366e+00	4.618206e-04	1.289357e-01	-1.100367e+00	9.938412e-01	2.776938e+04	1.110434e+04	3.000199e+02	-7.324565e-02	3.311837e-02	1.846010e-05	0.000000e+00	0.000000e+00	0.000000e+00	0.000000e+00	
1.002879e+00	8.024451e-04	1.291021e-01	-5.929293e-01	9.484188e-01	2.780064e+04	1.111832e+04	3.000104e+02	6.029035e-02	2.495109e-02	1.845965e-05	0.000000e+00	0.000000e+00	0.000000e+00	0.000000e+00	
1.004044e+00	6.807088e-04	1.289932e-01	-1.085996e+00	1.046472e+00	2.778140e+04	1.110903e+04	3.000128e+02	-2.843062e-02	3.367104e-02	1.845977e-05	0.000000e+00	0.000000e+00	0.000000e+00	0.000000e+00	
1.002402e+00	1.091587e-03	1.293634e-01	1.704258e+00	2.469218e+00	2.786594e+04	1.113246e+04	2.997851e+02	1.954103e-01	6.681792e-02	1.844899e-05	0.000000e+00	0.000000e+00	0.000000e+00	0.000000e+00	
1.001385e+00	-6.450805e-04	1.278479e-01	-1.829643e+00	2.106863e+00	2.754938e+04	1.100757e+04	2.999357e+02	-9.977995e-01	6.286569e-02	1.845612e-05	0.000000e+00	0.000000e+00	0.000000e+00	0.000000e+00	
1.001052e+00	-8.449541e-04	1.286660e-01	-2.491074e+00	4.130918e+00	2.774265e+04	1.106089e+04	2.994723e+02	-4.884017e-01	1.080704e-01	1.843418e-05	0.000000e+00	0.000000e+00	0.000000e+00	0.000000e+00	
1.001920e+00	8.250252e-04	1.296887e-01	2.329602e+00	3.435543e+00	2.794889e+04	1.115299e+04	2.995845e+02	3.915214e-01	9.224269e-02	1.843950e-05	0.000000e+00	0.000000e+00	0.000000e+00	0.000000e+00	
1.001877e+00	3.695856e-04	1.290942e-01	-3.160234e-01	1.358632e+00	2.780399e+04	1.111858e+04	3.000358e+02	6.282763e-02	3.111727e-02	1.846086e-05	0.000000e+00	0.000000e+00	0.000000e+00	0.000000e+00	
1.001807e+00	-4.172503e-05	1.296224e-01	-2.055975e+00	8.699298e-01	2.792399e+04	1.116190e+04	2.999774e+02	4.767302e-01	4.960295e-02	1.845809e-05	0.000000e+00	0.000000e+00	0.000000e+00	0.000000e+00	
1.001448e+00	-2.558326e-04	1.279926e-01	-2.271284e+00	1.341245e+00	2.757678e+04	1.101984e+04	2.999305e+02	-8.805941e-01	5.935915e-02	1.845587e-05	0.000000e+00	0.000000e+00	0.000000e+00	0.000000e+00	
1.000704e+00	-9.945370e-04	1.296996e-01	-2.177201e+00	6.937678e+00	2.799441e+04	1.111623e+04	2.985721e+02	4.037617e-02	1.618449e-01	1.839152e-05	0.000000e+00	0.000000e+00	0.000000e+00	0.000000e+00	
1.000351e+00	-1.274900e-03	1.287747e-01	1.613008e+00	9.429376e+00	2.783639e+04	1.099243e+04	2.973674e+02	-1.142500e+00	2.148918e-01	1.833433e-05	0.000000e+00	0.000000e+00	0.000000e+00	0.000000e+00	
3.124498e-03	-5.058856e-02	1.215778e-01	5.939714e+00	-1.350136e+01	2.648212e+04	1.023494e+04	2.932658e+02	-8.379648e+00	3.533968e-01	1.813876e-05	0.000000e+00	0.000000e+00	0.000000e+00	0.000000e+00	
2.537646e-03	-4.913744e-02	1.213481e-01	5.322664e+00	-1.394917e+01	2.643995e+04	1.020859e+04	2.930644e+02	-8.631394e+00	3.585102e-01	1.812912e-05	0.000000e+00	0.000000e+00	0.000000e+00	0.000000e+00	
2.003081e-03	-4.767386e-02	1.216884e-01	4.615190e+00	-1.414495e+01	2.651205e+04	1.024097e+04	2.931719e+02	-8.322028e+00	3.562127e-01	1.813427e-05	0.000000e+00	0.000000e+00	0.000000e+00	0.000000e+00	
1.004442e+00	-3.647625e-03	1.289622e-01	1.146055e+00	1.539137e+00	2.778541e+04	1.110845e+04	3.000692e+02	-3.396632e-02	4.284919e-02	1.846244e-05	0.000000e+00	0.000000e+00	0.000000e+00	0.000000e+00	
1.000737e+00	-1.891933e-03	1.294663e-01	1.597411e+00	4.404661e+00	2.791296e+04	1.113127e+04	2.995148e+02	1.840656e-01	1.043109e-01	1.843620e-05	0.000000e+00	0.000000e+00	0.000000e+00	0.000000e+00	
1.000392e+00	-1.641872e-03	1.274426e-01	4.047524e+00	5.626756e+00	2.750445e+04	1.092638e+04	2.986705e+02	-1.773478e+00	1.569838e-01	1.839619e-05	0.000000e+00	0.000000e+00	0.000000e+00	0.000000e+00	
1.001203e+00	-2.532536e-03	1.288844e-01	1.210335e+00	2.573407e+00	2.777427e+04	1.109716e+04	2.999452e+02	-1.418596e-01	6.355249e-02	1.845657e-05	0.000000e+00	0.000000e+00	0.000000e+00	0.000000e+00	
1.000759e+00	-2.351481e-03	1.292752e-01	1.390151e+00	3.104892e+00	2.786178e+04	1.112681e+04	2.998373e+02	1.414088e-01	7.580777e-02	1.845146e-05	0.000000e+00	0.000000e+00	0.000000e+00	0.000000e+00	
1.001352e+00	-3.178971e-03	1.289237e-01	1.383288e+00	2.069396e+00	2.778157e+04	1.110302e+04	3.000119e+02	-8.590325e-02	5.560334e-02	1.845973e-05	0.000000e+00	0.000000e+00	0.000000e+00	0.000000e+00	
1.001625e+00	-3.714218e-03	1.288753e-01	1.452982e+00	1.807296e+00	2.777084e+04	1.109999e+04	3.000429e+02	-1.147931e-01	5.181780e-02	1.846119e-05	0.000000e+00	0.000000e+00	0.000000e+00	0.000000e+00	
1.000049e+00	-1.488543e-03	1.296565e-01	5.549256e+00	5.364374e+00	2.799113e+04	1.110456e+04	2.983578e+02	-7.114291e-02	1.719114e-01	1.838135e-05	0.000000e+00	0.000000e+00	0.000000e+00	0.000000e+00	
9.997621e-01	-1.104661e-03	1.312957e-01	6.394304e+00	1.940292e+00	2.832507e+04	1.126201e+04	2.988105e+02	1.433151e+00	1.468665e-01	1.840283e-05	0.000000e+00	0.000000e+00	0.000000e+00	0.000000e+00	
1.002250e+00	-3.805001e-03	1.289341e-01	1.426010e+00	1.697221e+00	2.778296e+04	1.110556e+04	3.000564e+02	-6.160323e-02	4.951106e-02	1.846183e-05	0.000000e+00	0.000000e+00	0.000000e+00	0.000000e+00	
1.002911e+00	-4.129315e-03	1.289409e-01	1.448935e+00	1.599688e+00	2.778420e+04	1.110646e+04	3.000648e+02	-5.304502e-02	4.820277e-02	1.846223e-05	0.000000e+00	0.000000e+00	0.000000e+00	0.000000e+00	
1.003941e+00	-4.402792e-03	1.289571e-01	1.492201e+00	1.521904e+00	2.778799e+04	1.110815e+04	3.000730e+02	-3.684209e-02	4.759452e-02	1.846262e-05	0.000000e+00	0.000000e+00	0.000000e+00	0.000000e+00	
1.004989e+00	-2.864786e-03	1.289821e-01	9.350606e-01	1.479785e+00	2.778691e+04	1.111001e+04	3.000650e+02	-1.905449e-02	3.908100e-02	1.846224e-05	0.000000e+00	0.000000e+00	0.000000e+00	0.000000e+00	
1.004600e+00	1.482791e-04	1.289460e-01	-5.643176e-01	1.228946e+00	2.777416e+04	1.110683e+04	3.000630e+02	-4.947875e-02	3.020060e-02	1.846214e-05	0.000000e+00	0.000000e+00	0.000000e+00	0.000000e+00	
1.004845e+00	-1.323503e-03	1.290316e-01	5.219385e-01	1.429717e+00	2.779518e+04	1.111448e+04	3.000706e+02	2.364380e-02	3.396725e-02	1.846250e-05	0.000000e+00	0.000000e+00	0.000000e+00	0.000000e+00	
1.005247e+00	-4.921036e-04	1.289775e-01	7.655307e-02	1.345896e+00	2.778246e+04	1.111017e+04	3.000800e+02	-1.758518e-02	3.009759e-02	1.846295e-05	0.000000e+00	0.000000e+00	0.000000e+00	0.000000e+00	
1.005385e+00	-2.040620e-03	1.289650e-01	7.759066e-01	1.420226e+00	2.778150e+04	1.110854e+04	3.000649e+02	-3.315537e-02	3.613644e-02	1.846223e-05	0.000000e+00	0.000000e+00	0.000000e+00	0.000000e+00	
1.005600e+00	-3.671420e-03	1.289680e-01	1.155773e+00	1.450535e+00	2.778577e+04	1.110897e+04	3.000698e+02	-2.897500e-02	4.141222e-02	1.846247e-05	0.000000e+00	0.000000e+00	0.000000e+00	0.000000e+00	
1.004856e+00	9.844694e-04	1.288978e-01	-9.273237e-01	1.008885e+00	2.776049e+04	1.110128e+04	3.000255e+02	-1.024645e-01	3.061603e-02	1.846037e-05	0.000000e+00	0.000000e+00	0.000000e+00	0.000000e+00	
1.003475e+00	1.104840e-03	1.287012e-01	-4.720690e-01	1.183047e+00	2.771379e+04	1.108300e+04	2.999887e+02	-2.771725e-01	2.850373e-02	1.845863e-05	0.000000e+00	0.000000e+00	0.000000e+00	0.000000e+00	
1.002921e+00	1.439014e-03	1.291306e-01	1.199706e+00	1.965316e+00	2.780839e+04	1.111515e+04	2.998585e+02	2.999192e-02	5.136579e-02	1.845247e-05	0.000000e+00	0.000000e+00	0.000000e+00	0.000000e+00	
1.004232e+00	1.592033e-03	1.291528e-01	-2.937408e-01	1.231631e+00	2.781143e+04	1.112209e+04	2.999942e+02	9.631314e-02	2.823479e-02	1.845889e-05	0.000000e+00	0.000000e+00	0.000000e+00	0.000000e+00	
1.002634e+00	1.745849e-03	1.291523e-01	4.485982e+00	4.409241e+00	2.785782e+04	1.108186e+04	2.989102e+02	-2.880321e-01	1.405195e-01	1.840755e-05	0.000000e+00	0.000000e+00	0.000000e+00	0.000000e+00	
1.001966e+00	1.357329e-03	1.299790e-01	5.294645e+00	6.040581e+00	2.806830e+04	1.112804e+04	2.982469e+02	1.531916e-01	1.785022e-01	1.837609e-05	0.000000e+00	0.000000e+00	0.000000e+00	0.000000e+00	
1.001118e+00	-4.458293e-04	1.318662e-01	-4.442147e+00	2.311832e+00	2.843183e+04	1.133470e+04	2.994378e+02	2.127616e+00	1.094723e-01	1.843255e-05	0.000000e+00	0.000000e+00	0.000000e+00	0.000000e+00	
1.000802e+00	-6.109643e-04	1.253516e-01	-4.402897e+00	4.741181e+00	2.704792e+04	1.075237e+04	2.988168e+02	-3.435999e+00	1.489501e-01	1.840312e-05	0.000000e+00	0.000000e+00	0.000000e+00	0.000000e+00	
1.001538e+00	1.062938e-03	1.295690e-01	6.220087e+00	7.682741e+00	2.802126e+04	1.105767e+04	2.972986e+02	-5.191111e-01	2.207150e-01	1.833106e-05	0.000000e+00	0.000000e+00	0.000000e+00	0.000000e+00	
1.001490e+00	6.103496e-04	1.291342e-01	4.081296e+00	5.065387e+00	2.786042e+04	1.107863e+04	2.988652e+02	-3.188672e-01	1.453517e-01	1.840542e-05	0.000000e+00	0.000000e+00	0.000000e+00	0.000000e+00	
1.001472e+00	1.580183e-04	1.278748e-01	1.960583e-01	1.733495e+00	2.754394e+04	1.101282e+04	3.000156e+02	-9.476845e-01	3.928955e-02	1.845990e-05	0.000000e+00	0.000000e+00	0.000000e+00	0.000000e+00	
1.001141e+00	-3.889667e-05	1.286181e-01	-4.837776e-01	2.368904e+00	2.770729e+04	1.107383e+04	2.999341e+02	-3.647962e-01	5.414471e-02	1.845604e-05	0.000000e+00	0.000000e+00	0.000000e+00	0.000000e+00	
1.000462e+00	-6.875217e-04	1.334186e-01	-1.028333e+01	5.709759e+00	2.888325e+04	1.134591e+04	2.962466e+02	2.234760e+00	2.555022e-01	1.828102e-05	0.000000e+00	0.000000e+00	0.000000e+00	0.000000e+00	
1.000000e+00	-1.000000e-03	1.143015e-01	-1.934422e+00	5.844688e+00	2.466401e+04	9.799282e+03	2.986569e+02	-1.254201e+01	1.554698e-01	1.839554e-05	0.000000e+00	0.000000e+00	0.000000e+00	0.000000e+00	
4.487486e-03	-5.353820e-02	1.219339e-01	6.519952e+00	-1.307448e+01	2.655294e+04	1.027107e+04	2.934414e+02	-8.034494e+00	3.489120e-01	1.814716e-05	0.000000e+00	0.000000e+00	0.000000e+00	0.000000e+00	
6.075662e-03	-5.649344e-02	1.218909e-01	7.229988e+00	-1.260199e+01	2.654040e+04	1.026981e+04	2.935091e+02	-8.046466e+00	3.470527e-01	1.815040e-05	0.000000e+00	0.000000e+00	0.000000e+00	0.000000e+00	
7.914154e-04	-5.044773e-02	1.223325e-01	5.312613e+00	-1.340546e+01	2.663638e+04	1.031461e+04	2.937253e+02	-7.618495e+00	3.430817e-01	1.816074e-05	0.000000e+00	0.000000e+00	0.000000e+00	0.000000e+00	
9.751374e-04	-5.319819e-02	1.225954e-01	5.884038e+00	-1.289597e+01	2.668469e+04	1.034608e+04	2.939896e+02	-7.317773e+00	3.363808e-01	1.817337e-05	0.000000e+00	0.000000e+00	0.000000e+00	0.000000e+00	
3.046064e-04	-4.871983e-02	1.222944e-01	4.751895e+00	-1.362014e+01	2.662880e+04	1.031121e+04	2.937201e+02	-7.650949e+00	3.433225e-01	1.816049e-05	0.000000e+00	0.000000e+00	0.000000e+00	0.000000e+00	
-1.247483e-03	-4.992448e-02	1.228776e-01	4.826529e+00	-1.321593e+01	2.674388e+04	1.037535e+04	2.941442e+02	-7.038161e+00	3.330296e-01	1.818075e-05	0.000000e+00	0.000000e+00	0.000000e+00	0.000000e+00	
1.078855e-03	-4.462073e-02	1.216055e-01	3.665208e+00	-1.426853e+01	2.649060e+04	1.023931e+04	2.933240e+02	-8.337923e+00	3.528406e-01	1.814155e-05	0.000000e+00	0.000000e+00	0.000000e+00	0.000000e+00	
-1.103826e-03	-4.621321e-02	1.225972e-01	3.921066e+00	-1.363033e+01	2.668705e+04	1.034666e+04	2.940016e+02	-7.312296e+00	3.365636e-01	1.817394e-05	0.000000e+00	0.000000e+00	0.000000e+00	0.000000e+00	
1.005058e+00	-4.561658e-03	1.289788e-01	1.442109e+00	1.449985e+00	2.779161e+04	1.111016e+04	3.000767e+02	-1.764913e-02	4.565787e-02	1.846279e-05	0.000000e+00	0.000000e+00	0.000000e+00	0.000000e+00	
1.001557e+00	-4.180226e-03	1.289434e-01	1.703895e+00	1.703720e+00	2.778717e+04	1.110586e+04	3.000431e+02	-5.871793e-02	5.381408e-02	1.846120e-05	0.000000e+00	0.000000e+00	0.000000e+00	0.000000e+00	
1.000310e+00	-2.221573e-03	1.281311e-01	2.573097e+00	3.598633e+00	2.762334e+04	1.101879e+04	2.995779e+02	-8.906332e-01	9.950576e-02	1.843918e-05	0.000000e+00	0.000000e+00	0.000000e+00	0.000000e+00	
1.000776e+00	-3.037556e-03	1.290199e-01	1.736101e+00	2.519452e+00	2.780600e+04	1.110789e+04	2.999198e+02	-3.937168e-02	6.830759e-02	1.845537e-05	0.000000e+00	0.000000e+00	0.000000e+00	0.000000e+00	
1.001025e+00	-3.662316e-03	1.288977e-01	1.654981e+00	1.918892e+00	2.777769e+04	1.110111e+04	3.000210e+02	-1.040972e-01	5.661547e-02	1.846016e-05	0.000000e+00	0.000000e+00	0.000000e+00	0.000000e+00	
9.996162e-01	-1.964124e-03	1.273888e-01	3.622212e+00	2.364416e+00	2.746133e+04	1.095515e+04	2.995833e+02	-1.498600e+00	9.786068e-02	1.843944e-05	0.000000e+00	0.000000e+00	0.000000e+00	0.000000e+00	
9.990485e-01	-1.418665e-03	1.278832e-01	3.825771e+00	1.903426e+00	2.756597e+04	1.099783e+04	2.995876e+02	-1.090875e+00	9.629879e-02	1.843964e-05	0.000000e+00	0.000000e+00	0.000000e+00	0.000000e+00	
1.002282e+00	-4.510163e-03	1.290020e-01	1.671888e+00	1.562091e+00	2.779937e+04	1.111163e+04	3.000626e+02	-3.573060e-03	5.107651e-02	1.846212e-05	0.000000e+00	0.000000e+00	0.000000e+00	0.000000e+00	
1.002962e+00	-4.912260e-03	1.289504e-01	1.677410e+00	1.523027e+00	2.778842e+04	1.110740e+04	3.000684e+02	-4.397683e-02	5.059614e-02	1.846240e-05	0.000000e+00	0.000000e+00	0.000000e+00	0.000000e+00	
1.001750e+00	-5.095156e-03	1.288553e-01	1.912143e+00	1.525675e+00	2.776981e+04	1.109864e+04	3.000527e+02	-1.277370e-01	5.466947e-02	1.846166e-05	0.000000e+00	0.000000e+00	0.000000e+00	0.000000e+00	
1.004735e+00	-5.642368e-03	1.289827e-01	1.763677e+00	1.394701e+00	2.779598e+04	1.111055e+04	3.000783e+02	-1.389267e-02	5.019900e-02	1.846287e-05	0.000000e+00	0.000000e+00	0.000000e+00	0.000000e+00	
1.003696e+00	-5.435715e-03	1.289711e-01	1.820506e+00	1.446635e+00	2.779450e+04	1.110942e+04	3.000746e+02	-2.474981e-02	5.191850e-02	1.846269e-05	0.000000e+00	0.000000e+00	0.000000e+00	0.000000e+00	
1.006053e+00	-2.737744e-03	1.289879e-01	9.476216e-01	1.397801e+00	2.778738e+04	1.111053e+04	3.000655e+02	-1.412554e-02	3.770130e-02	1.846226e-05	0.000000e+00	0.000000e+00	0.000000e+00	0.000000e+00	
1.005470e+00	3.377175e-04	1.290532e-01	-4.945565e-01	1.207921e+00	2.779709e+04	1.111619e+04	3.000666e+02	4.000074e-02	2.912494e-02	1.846231e-05	0.000000e+00	0.000000e+00	0.000000e+00	0.000000e+00	
1.005746e+00	-1.196984e-03	1.289758e-01	5.019365e-01	1.373017e+00	2.778280e+04	1.110981e+04	3.000741e+02	-2.102620e-02	3.263943e-02	1.846267e-05	0.000000e+00	0.000000e+00	0.000000e+00	0.000000e+00	
1.006172e+00	-3.220224e-04	1.289973e-01	8.987838e-02	1.304666e+00	2.778652e+04	1.111196e+04	3.000821e+02	-4.866718e-04	2.919293e-02	1.846305e-05	0.000000e+00	0.000000e+00	0.000000e+00	0.000000e+00	
1.006343e+00	-1.782626e-03	1.290127e-01	7.439539e-01	1.351981e+00	2.779113e+04	1.111276e+04	3.000682e+02	7.198047e-03	3.444433e-02	1.846239e-05	0.000000e+00	0.000000e+00	0.000000e+00	0.000000e+00	
1.006758e+00	-3.604879e-03	1.289782e-01	1.130553e+00	1.359207e+00	2.778661e+04	1.110980e+04	3.000683e+02	-2.112247e-02	3.947217e-02	1.846239e-05	0.000000e+00	0.000000e+00	0.000000e+00	0.000000e+00	
1.006274e+00	-4.676897e-03	1.289917e-01	1.396431e+00	1.373724e+00	2.779301e+04	1.111126e+04	3.000762e+02	-7.176050e-03	4.372976e-02	1.846277e-05	0.000000e+00	0.000000e+00	0.000000e+00	0.000000e+00	
1.005808e+00	1.084537e-03	1.289861e-01	-8.037313e-01	1.006936e+00	2.777952e+04	1.110923e+04	3.000347e+02	-2.648955e-02	2.876497e-02	1.846081e-05	0.000000e+00	0.000000e+00	0.000000e+00	0.000000e+00	
1.005211e+00	1.842024e-03	1.288900e-01	-2.339903e-01	1.048457e+00	2.775478e+04	1.110012e+04	3.000121e+02	-1.135412e-01	2.400313e-02	1.845974e-05	0.000000e+00	0.000000e+00	0.000000e+00	0.000000e+00	
1.003503e+00	2.101326e-03	1.287638e-01	2.812764e+00	2.759297e+00	2.774502e+04	1.107389e+04	2.995966e+02	-3.641365e-01	8.818806e-02	1.844007e-05	0.000000e+00	0.000000e+00	0.000000e+00	0.000000e+00	
1.004488e+00	2.510540e-03	1.290089e-01	2.371085e+00	2.232971e+00	2.779232e+04	1.110048e+04	2.997454e+02	-1.100998e-01	7.274047e-02	1.844711e-05	0.000000e+00	0.000000e+00	0.000000e+00	0.000000e+00	
1.002073e+00	2.038580e-03	1.306426e-01	7.465749e+00	7.966936e+00	2.828315e+04	1.113076e+04	2.968045e+02	1.791985e-01	2.419839e-01	1.830757e-05	0.000000e+00	0.000000e+00	0.000000e+00	0.000000e+00	
1.002830e+00	2.586783e-03	1.309931e-01	7.080477e+00	6.787826e+00	2.833243e+04	1.118608e+04	2.974815e+02	7.077264e-01	2.165598e-01	1.833975e-05	0.000000e+00	0.000000e+00	0.000000e+00	0.000000e+00	
1.001639e+00	1.583835e-03	1.319805e-01	7.529516e+00	9.231245e+00	2.859832e+04	1.122428e+04	2.962642e+02	1.072689e+00	2.615819e-01	1.828186e-05	0.000000e+00	0.000000e+00	0.000000e+00	0.000000e+00	
1.001175e+00	1.348088e-03	1.313376e-01	7.819745e+00	1.032829e+01	2.849153e+04	1.114105e+04	2.955069e+02	2.775097e-01	2.862218e-01	1.824578e-05	0.000000e+00	0.000000e+00	0.000000e+00	0.000000e+00	
1.000841e+00	-1.924534e-04	1.247164e-01	-1.563944e-01	2.536432e+00	2.686716e+04	1.073651e+04	2.998953e+02	-3.587602e+00	5.869348e-02	1.845421e-05	0.000000e+00	0.000000e+00	0.000000e+00	0.000000e+00	
1.000590e+00	-3.547591e-04	1.263709e-01	-2.676775e+00	4.015232e+00	2.723564e+04	1.085740e+04	2.993016e+02	-2.432558e+00	1.101053e-01	1.842610e-05	0.000000e+00	0.000000e+00	0.000000e+00	0.000000e+00	
1.001105e+00	8.682598e-04	1.326583e-01	6.898595e+00	1.008623e+01	2.874642e+04	1.127344e+04	2.960415e+02	1.542401e+00	2.670567e-01	1.827125e-05	0.000000e+00	0.000000e+00	0.000000e+00	0.000000e+00	
1.001126e+00	3.389622e-04	1.326880e-01	4.701410e+00	7.270789e+00	2.866127e+04	1.135151e+04	2.980247e+02	2.288249e+00	1.885516e-01	1.836555e-05	0.000000e+00	0.000000e+00	0.000000e+00	0.000000e+00	
1.000833e+00	1.558503e-04	1.302794e-01	7.870235e+00	9.013960e+00	2.821718e+04	1.106705e+04	2.959283e+02	-4.295363e-01	2.663432e-01	1.826586e-05	0.000000e+00	0.000000e+00	0.000000e+00	0.000000e+00	
1.000363e+00	-3.342628e-04	1.242726e-01	4.793482e+00	1.651570e+01	2.709174e+04	1.036073e+04	2.904326e+02	-7.177813e+00	4.050535e-01	1.800290e-05	0.000000e+00	0.000000e+00	0.000000e+00	0.000000e+00	
1.000000e+00	0.000000e+00	2.431407e-01	1.944752e+01	1.035734e+02	5.886098e+04	1.440923e+04	2.064493e+02	3.150224e+01	1.504731e+00	1.364912e-05	0.000000e+00	0.000000e+00	0.000000e+00	0.000000e+00	
2.093898e-03	-5.662749e-02	1.228108e-01	6.546123e+00	-1.242024e+01	2.672599e+04	1.036939e+04	2.941353e+02	-7.095097e+00	3.325064e-01	1.818033e-05	0.000000e+00	0.000000e+00	0.000000e+00	0.000000e+00	
7.917903e-03	-5.950615e-02	1.220843e-01	7.828561e+00	-1.208115e+01	2.657661e+04	1.029114e+04	2.936527e+02	-7.842699e+00	3.432509e-01	1.815727e-05	0.000000e+00	0.000000e+00	0.000000e+00	0.000000e+00	
1.006240e-02	-6.263190e-02	1.222581e-01	8.355034e+00	-1.155037e+01	2.660845e+04	1.031094e+04	2.937995e+02	-7.653550e+00	3.393351e-01	1.816428e-05	0.000000e+00	0.000000e+00	0.000000e+00	0.000000e+00	
1.251909e-02	-6.585572e-02	1.224323e-01	8.820798e+00	-1.101813e+01	2.664045e+04	1.033077e+04	2.939455e+02	-7.464106e+00	3.354073e-01	1.817126e-05	0.000000e+00	0.000000e+00	0.000000e+00	0.000000e+00	
1.529738e-02	-6.916095e-02	1.226029e-01	9.236039e+00	-1.047049e+01	2.667142e+04	1.035057e+04	2.940993e+02	-7.274891e+00	3.312447e-01	1.817861e-05	0.000000e+00	0.000000e+00	0.000000e+00	0.000000e+00	
1.843145e-02	-7.254755e-02	1.227874e-01	9.592255e+00	-9.895018e+00	2.670455e+04	1.037247e+04	2.942786e+02	-7.065705e+00	3.263673e-01	1.818718e-05	0.000000e+00	0.000000e+00	0.000000e+00	0.000000e+00	
2.196161e-02	-7.602450e-02	1.230074e-01	9.868533e+00	-9.316288e+00	2.674449e+04	1.039833e+04	2.944848e+02	-6.818598e+00	3.207091e-01	1.819702e-05	0.000000e+00	0.000000e+00	0.000000e+00	0.000000e+00	
2.590787e-02	-7.959552e-02	1.232458e-01	1.007936e+01	-8.775190e+00	2.678862e+04	1.042563e+04	2.946865e+02	-6.557816e+00	3.150913e-01	1.820665e-05	0.000000e+00	0.000000e+00	0.000000e+00	0.000000e+00	
3.032086e-02	-8.329435e-02	1.234567e-01	1.025437e+01	-8.271644e+00	2.682757e+04	1.044984e+04	2.948664e+02	-6.326459e+00	3.100015e-01	1.821523e-05	0.000000e+00	0.000000e+00	0.000000e+00	0.000000e+00	
3.519676e-02	-8.708114e-02	1.236381e-01	1.040936e+01	-7.779088e+00	2.686061e+04	1.047108e+04	2.950322e+02	-6.123555e+00	3.052383e-01	1.822315e-05	0.000000e+00	0.000000e+00	0.000000e+00	0.000000e+00	
4.055945e-02	-9.093914e-02	1.238183e-01	1.053498e+01	-7.293745e+00	2.689349e+04	1.049219e+04	2.951968e+02	-5.921825e+00	3.004530e-01	1.823100e-05	0.000000e+00	0.000000e+00	0.000000e+00	0.000000e+00	
4.640551e-02	-9.483552e-02	1.239977e-01	1.063012e+01	-6.821611e+00	2.692627e+04	1.051319e+04	2.953596e+02	-5.721211e+00	2.956571e-01	1.823876e-05	0.000000e+00	0.000000e+00	0.000000e+00	0.000000e+00	
5.272092e-02	-9.873795e-02	1.241736e-01	1.069456e+01	-6.365261e+00	2.695835e+04	1.053387e+04	2.955213e+02	-5.523645e+00	2.908301e-01	1.824647e-05	0.000000e+00	0.000000e+00	0.000000e+00	0.000000e+00	