TITLE = "SU2 Simulation"
VARIABLES = "Iteration","CLift","CDrag","CSideForce","CMx","CMy","CMz","CFx","CFy","CFz","CL/CD","HeatFlux_Total","HeatFlux_Maximum","Res_Flow[0]","Res_Flow[1]","Res_Flow[2]","Res_Flow[3]","Res_Flow[4]","Linear_Solver_Iterations","CFL_Number","Time(min)"
ZONE T= "Convergence history"
           0, -7.07769920e+00, 4.73131455e+00, 0.00000000e+00, 0.00000000e+00, 0.00000000e+00, -3.37352045e+00, 2.59715315e+00, -8.10764817e+00, 0.00000000e+00, -1.49592658e+00, 0.00000000e+00, 0.00000000e+00, -2.35758800e+00, -7.68695857e-01, -1.12977955e+00, 3.12273815e+00, 0.00000000e+00, 8.0000000000, 4.0000000000, 0.0092646134
           1, -1.00182181e+01, 6.65899055e+00, 0.00000000e+00, 0.00000000e+00, 0.00000000e+00, -4.80223595e+00, 3.63963741e+00, -1.14655958e+01, 0.00000000e+00, -1.50446498e+00, 0.00000000e+00, 0.00000000e+00, -2.53750959e+00, -5.91212757e-01, -1.95316042e-01, 2.93951811e+00, 0.00000000e+00, 8.0000000000, 4.0000000000, 0.0176648035
           2, -1.02694234e+01, 6.75958859e+00, 0.00000000e+00, 0.00000000e+00, 0.00000000e+00, -4.94062299e+00, 3.66709688e+00, -1.17347985e+01, 0.00000000e+00, -1.51923793e+00, 0.00000000e+00, 0.00000000e+00, -2.69403336e+00, -5.40585520e-01, -1.14113467e-01, 2.78677428e+00, 0.00000000e+00, 8.0000000000, 4.0000000000, 0.0213313109
           3, -9.51072305e+00, 6.18789602e+00, 0.00000000e+00, 0.00000000e+00, 0.00000000e+00, -4.58037924e+00, 3.32667687e+00, -1.08479091e+01, 0.00000000e+00, -1.53698818e+00, 0.00000000e+00, 0.00000000e+00, -2.69645857e+00, -5.80794904e-01, -1.67877406e-01, 2.78400188e+00, 0.00000000e+00, 8.0000000000, 4.0000000000, 0.0251322667
           4, -8.79040489e+00, 5.64648386e+00, 0.00000000e+00, 0.00000000e+00, 0.00000000e+00, -4.22464742e+00, 3.00478470e+00, -1.00062614e+01, 0.00000000e+00, -1.55679270e+00, 0.00000000e+00, 0.00000000e+00, -2.70482518e+00, -5.96798753e-01, -2.14747328e-01, 2.77396300e+00, 0.00000000e+00, 8.0000000000, 4.0000000000, 0.0292645046
           5, -8.47877690e+00, 5.37463551e+00, 0.00000000e+00, 0.00000000e+00, 0.00000000e+00, -4.05893563e+00, 2.82936360e+00, -9.63177378e+00, 0.00000000e+00, -1.57755384e+00, 0.00000000e+00, 0.00000000e+00, -2.73986807e+00, -5.78329981e-01, -2.19380003e-01, 2.73953288e+00, 0.00000000e+00, 8.0000000000, 4.0000000000, 0.0359944704
           6, -8.51106214e+00, 5.32496421e+00, 0.00000000e+00, 0.00000000e+00, 0.00000000e+00, -4.05898500e+00, 2.77271747e+00, -9.64911708e+00, 0.00000000e+00, -1.59833227e+00, 0.00000000e+00, 0.00000000e+00, -2.76043798e+00, -5.53357666e-01, -2.17500408e-01, 2.72022511e+00, 0.00000000e+00, 8.0000000000, 4.0000000000, 0.0429984477
           7, -8.66817959e+00, 5.35246187e+00, 0.00000000e+00, 0.00000000e+00, 0.00000000e+00, -4.11997852e+00, 2.75584247e+00, -9.80772745e+00, 0.00000000e+00, -1.61947526e+00, 0.00000000e+00, 0.00000000e+00, -2.76246440e+00, -5.26692278e-01, -2.19288128e-01, 2.71854631e+00, 0.00000000e+00, 8.0000000000, 4.0000000000, 0.0498660909
           8, -8.77932108e+00, 5.34715048e+00, 0.00000000e+00, 0.00000000e+00, 0.00000000e+00, -4.15690930e+00, 2.72010209e+00, -9.91309949e+00, 0.00000000e+00, -1.64186909e+00, 0.00000000e+00, 0.00000000e+00, -2.76352027e+00, -4.97010556e-01, -2.18997327e-01, 2.71744366e+00, 0.00000000e+00, 8.0000000000, 4.0000000000, 0.0556032827
           9, -8.78192415e+00, 5.27014180e+00, 0.00000000e+00, 0.00000000e+00, 0.00000000e+00, -4.13663007e+00, 2.64535909e+00, -9.89437526e+00, 0.00000000e+00, -1.66635443e+00, 0.00000000e+00, 0.00000000e+00, -2.76821198e+00, -4.65965729e-01, -2.16526976e-01, 2.71287623e+00, 0.00000000e+00, 8.0000000000, 4.0000000000, 0.0606035584
          10, -8.69415485e+00, 5.13373569e+00, 0.00000000e+00, 0.00000000e+00, 0.00000000e+00, -4.06624493e+00, 2.53842962e+00, -9.77240736e+00, 0.00000000e+00, -1.69353379e+00, 0.00000000e+00, 0.00000000e+00, -2.77342128e+00, -4.35431942e-01, -2.14495392e-01, 2.70793952e+00, 0.00000000e+00, 8.0000000000, 4.0000000000, 0.0655984533
          11, -8.56446252e+00, 4.96847738e+00, 0.00000000e+00, 0.00000000e+00, 0.00000000e+00, -3.96894052e+00, 2.41532119e+00, -9.60218773e+00, 0.00000000e+00, -1.72375999e+00, 0.00000000e+00, 0.00000000e+00, -2.77733579e+00, -4.06288476e-01, -2.13215670e-01, 2.70432924e+00, 0.00000000e+00, 8.0000000000, 4.0000000000, 0.0717988709
          12, -8.43300151e+00, 4.79908794e+00, 0.00000000e+00, 0.00000000e+00, 0.00000000e+00, -3.86471817e+00, 2.28872918e+00, -9.42912924e+00, 0.00000000e+00, -1.75720921e+00, 0.00000000e+00, 0.00000000e+00, -2.77994612e+00, -3.78970978e-01, -2.11632423e-01, 2.70204502e+00, 0.00000000e+00, 8.0000000000, 4.0000000000, 0.0805361547
          13, -8.31684242e+00, 4.63578262e+00, 0.00000000e+00, 0.00000000e+00, 0.00000000e+00, -3.76246433e+00, 2.16376781e+00, -9.27245692e+00, 0.00000000e+00, -1.79405359e+00, 0.00000000e+00, 0.00000000e+00, -2.78127993e+00, -3.53741595e-01, -2.09045699e-01, 2.70106966e+00, 0.00000000e+00, 8.0000000000, 4.0000000000, 0.0886581002
          14, -8.21379053e+00, 4.47707638e+00, 0.00000000e+00, 0.00000000e+00, 0.00000000e+00, -3.66142392e+00, 2.03961453e+00, -9.12965171e+00, 0.00000000e+00, -1.83463266e+00, 0.00000000e+00, 0.00000000e+00, -2.78117521e+00, -3.30633748e-01, -2.05239893e-01, 2.70154006e+00, 0.00000000e+00, 8.0000000000, 4.0000000000, 0.0945981856
          15, -8.11316860e+00, 4.31660345e+00, 0.00000000e+00, 0.00000000e+00, 0.00000000e+00, -3.55643413e+00, 1.91309321e+00, -8.98869537e+00, 0.00000000e+00, -1.87952604e+00, 0.00000000e+00, 0.00000000e+00, -2.77967352e+00, -3.09449754e-01, -2.00084266e-01, 2.70337690e+00, 0.00000000e+00, 8.0000000000, 4.0000000000, 0.1020715184
          16, -8.00504897e+00, 4.14872398e+00, 0.00000000e+00, 0.00000000e+00, 0.00000000e+00, -3.44261186e+00, 1.78151891e+00, -8.83849026e+00, 0.00000000e+00, -1.92952074e+00, 0.00000000e+00, 0.00000000e+00, -2.77705003e+00, -2.89861720e-01, -1.93439399e-01, 2.70627743e+00, 0.00000000e+00, 8.0000000000, 4.0000000000, 0.1112610652
          17, -7.88446544e+00, 3.97095667e+00, 0.00000000e+00, 0.00000000e+00, 0.00000000e+00, -3.31760201e+00, 1.64387533e+00, -8.67357862e+00, 0.00000000e+00, -1.98553298e+00, 0.00000000e+00, 0.00000000e+00, -2.77364291e+00, -2.71527640e-01, -1.85256010e-01, 2.70988489e+00, 0.00000000e+00, 8.0000000000, 4.0000000000, 0.1257272786
          18, -7.75122082e+00, 3.78375472e+00, 0.00000000e+00, 0.00000000e+00, 0.00000000e+00, -3.18157795e+00, 1.50065247e+00, -8.49389581e+00, 0.00000000e+00, -2.04855267e+00, 0.00000000e+00, 0.00000000e+00, -2.76975083e+00, -2.54172081e-01, -1.75640391e-01, 2.71388353e+00, 0.00000000e+00, 8.0000000000, 4.0000000000, 0.1319979791
          19, -7.60762267e+00, 3.58909863e+00, 0.00000000e+00, 0.00000000e+00, 0.00000000e+00, -3.03613291e+00, 1.35311804e+00, -8.30220593e+00, 0.00000000e+00, -2.11964715e+00, 0.00000000e+00, 0.00000000e+00, -2.76558213e+00, -2.37633416e-01, -1.64860287e-01, 2.71804676e+00, 0.00000000e+00, 8.0000000000, 4.0000000000, 0.1353958653
          20, -7.45621595e+00, 3.38914479e+00, 0.00000000e+00, 0.00000000e+00, 0.00000000e+00, -2.88311747e+00, 1.20264342e+00, -8.10154970e+00, 0.00000000e+00, -2.20002874e+00, 0.00000000e+00, 0.00000000e+00, -2.76120739e+00, -2.21878675e-01, -1.53328673e-01, 2.72228490e+00, 0.00000000e+00, 8.0000000000, 4.0000000000, 0.1374019710
          21, -7.29852898e+00, 3.18549759e+00, 0.00000000e+00, 0.00000000e+00, 0.00000000e+00, -2.72396706e+00, 1.05034958e+00, -7.89383848e+00, 0.00000000e+00, -2.29117392e+00, 0.00000000e+00, 0.00000000e+00, -2.75652347e+00, -2.06986677e-01, -1.41567910e-01, 2.72668303e+00, 0.00000000e+00, 8.0000000000, 4.0000000000, 0.1390034921
          22, -7.13487529e+00, 2.97910523e+00, 0.00000000e+00, 0.00000000e+00, 0.00000000e+00, -2.55956536e+00, 8.97061585e-01, -7.67963501e+00, 0.00000000e+00, -2.39497256e+00, 0.00000000e+00, 0.00000000e+00, -2.75126237e+00, -1.93109897e-01, -1.30151596e-01, 2.73149695e+00, 0.00000000e+00, 8.0000000000, 4.0000000000, 0.1451960495
          23, -6.96476222e+00, 2.77050222e+00, 0.00000000e+00, 0.00000000e+00, 0.00000000e+00, -2.39042744e+00, 7.43429024e-01, -7.45861305e+00, 0.00000000e+00, -2.51389880e+00, 0.00000000e+00, 0.00000000e+00, -2.74505778e+00, -1.80426688e-01, -1.19638559e-01, 2.73709336e+00, 0.00000000e+00, 8.0000000000, 4.0000000000, 0.1566706300
          24, -6.78741703e+00, 2.56010411e+00, 0.00000000e+00, 0.00000000e+00, 0.00000000e+00, -2.21695263e+00, 5.90064334e-01, -7.23014433e+00, 0.00000000e+00, -2.65122696e+00, 0.00000000e+00, 0.00000000e+00, -2.73754846e+00, -1.69098733e-01, -1.10515545e-01, 2.74385260e+00, 0.00000000e+00, 8.0000000000, 4.0000000000, 0.1620721662
          25, -6.60213686e+00, 2.34839429e+00, 0.00000000e+00, 0.00000000e+00, 0.00000000e+00, -2.03959478e+00, 4.37625928e-01, -6.99368647e+00, 0.00000000e+00, -2.81134088e+00, 0.00000000e+00, 0.00000000e+00, -2.72848573e+00, -1.59241724e-01, -1.03159980e-01, 2.75206271e+00, 0.00000000e+00, 8.0000000000, 4.0000000000, 0.1642683220
          26, -6.40839668e+00, 2.13596895e+00, 0.00000000e+00, 0.00000000e+00, 0.00000000e+00, -1.85891178e+00, 2.86831618e-01, -6.74889909e+00, 0.00000000e+00, -3.00022933e+00, 0.00000000e+00, 0.00000000e+00, -2.71780883e+00, -1.50910160e-01, -9.78225373e-02, 2.76183932e+00, 0.00000000e+00, 8.0000000000, 4.0000000000, 0.1662721530
          27, -6.20579235e+00, 1.92348593e+00, 0.00000000e+00, 0.00000000e+00, 0.00000000e+00, -1.67553154e+00, 1.38425150e-01, -6.49557505e+00, 0.00000000e+00, -3.22632584e+00, 0.00000000e+00, 0.00000000e+00, -2.70566700e+00, -1.44093494e-01, -9.46221943e-02, 2.77309390e+00, 0.00000000e+00, 8.0000000000, 4.0000000000, 0.1694644531
          28, -5.99392280e+00, 1.71158506e+00, 0.00000000e+00, 0.00000000e+00, 0.00000000e+00, -1.49008777e+00, -6.86787750e-03, -6.23350517e+00, 0.00000000e+00, -3.50197192e+00, 0.00000000e+00, 0.00000000e+00, -2.69239005e+00, -1.38718922e-01, -9.35459802e-02, 2.78555230e+00, 0.00000000e+00, 8.0000000000, 4.0000000000, 0.1840585755
          29, -5.77229521e+00, 1.50082579e+00, 0.00000000e+00, 0.00000000e+00, 0.00000000e+00, -1.30316868e+00, -1.48373846e-01, -5.96236994e+00, 0.00000000e+00, -3.84607944e+00, 0.00000000e+00, 0.00000000e+00, -2.67842904e+00, -1.34658760e-01, -9.44471197e-02, 2.79880586e+00, 0.00000000e+00, 8.0000000000, 4.0000000000, 0.1915973504
          30, -5.54028514e+00, 1.29165951e+00, 0.00000000e+00, 0.00000000e+00, 0.00000000e+00, -1.11529534e+00, -2.85486736e-01, -5.68169350e+00, 0.00000000e+00, -4.28927678e+00, 0.00000000e+00, 0.00000000e+00, -2.66428886e+00, -1.31743666e-01, -9.70445096e-02, 2.81237517e+00, 0.00000000e+00, 8.0000000000, 4.0000000000, 0.1964035231
          31, -5.29714623e+00, 1.08443258e+00, 0.00000000e+00, 0.00000000e+00, 0.00000000e+00, -9.26926544e-01, -4.17667881e-01, -5.39085389e+00, 0.00000000e+00, -4.88471698e+00, 0.00000000e+00, 0.00000000e+00, -2.65046803e+00, -1.29783244e-01, -1.00929330e-01, 2.82577086e+00, 0.00000000e+00, 8.0000000000, 4.0000000000, 0.2109913998
          32, -5.04204937e+00, 8.79407522e-01, 0.00000000e+00, 0.00000000e+00, 0.00000000e+00, -7.38479315e-01, -5.44436389e-01, -5.08912649e+00, 0.00000000e+00, -5.73346172e+00, 0.00000000e+00, 0.00000000e+00, -2.63741007e+00, -1.28595665e-01, -1.05592275e-01, 2.83854551e+00, 0.00000000e+00, 8.0000000000, 4.0000000000, 0.2227306044
          33, -4.77413217e+00, 6.76790378e-01, 0.00000000e+00, 0.00000000e+00, 0.00000000e+00, -5.50354050e-01, -6.65356500e-01, -4.77573909e+00, 0.00000000e+00, -7.05407807e+00, 0.00000000e+00, 0.00000000e+00, -2.62546457e+00, -1.28044649e-01, -1.10482116e-01, 2.85033702e+00, 0.00000000e+00, 8.0000000000, 4.0000000000, 0.2261319193
          34, -4.49254802e+00, 4.76759205e-01, 0.00000000e+00, 0.00000000e+00, 0.00000000e+00, -3.62958929e-01, -7.80023694e-01, -4.44992697e+00, 0.00000000e+00, -9.42309654e+00, 0.00000000e+00, 0.00000000e+00, -2.61485648e+00, -1.28075949e-01, -1.15097626e-01, 2.86090357e+00, 0.00000000e+00, 8.0000000000, 4.0000000000, 0.2433253385
          35, -4.19651260e+00, 2.79488218e-01, 0.00000000e+00, 0.00000000e+00, 0.00000000e+00, -1.76731407e-01, -8.88054319e-01, -4.11098421e+00, 0.00000000e+00, -1.50149893e+01, 0.00000000e+00, 0.00000000e+00, -2.60566501e+00, -1.28741227e-01, -1.19094215e-01, 2.87014849e+00, 0.00000000e+00, 8.0000000000, 4.0000000000, 0.2466700611
          36, -3.88534931e+00, 8.51751171e-02, 0.00000000e+00, 0.00000000e+00, 0.00000000e+00, 7.84184438e-03, -9.89071832e-01, -3.75831491e+00, 0.00000000e+00, -4.56160137e+01, 0.00000000e+00, 0.00000000e+00, -2.59781540e+00, -1.30195095e-01, -1.22367727e-01, 2.87813130e+00, 0.00000000e+00, 8.0000000000, 4.0000000000, 0.2506648638
          37, -3.55853619e+00, -1.05933587e-01, 0.00000000e+00, 0.00000000e+00, 0.00000000e+00, 1.90205923e-01, -1.08269540e+00, -3.39148528e+00, 0.00000000e+00, 3.35921430e+01, 0.00000000e+00, 0.00000000e+00, -2.59108801e+00, -1.32655454e-01, -1.25072915e-01, 2.88506047e+00, 0.00000000e+00, 8.0000000000, 4.0000000000, 0.2554054442
          38, -3.21575262e+00, -2.93522973e-01, 0.00000000e+00, 0.00000000e+00, 0.00000000e+00, 3.69721953e-01, -1.16853394e+00, -3.01027392e+00, 0.00000000e+00, 1.09557101e+01, 0.00000000e+00, 0.00000000e+00, -2.58514879e+00, -1.36326819e-01, -1.27553409e-01, 2.89126356e+00, 0.00000000e+00, 8.0000000000, 4.0000000000, 0.2648580579
          39, -2.85692463e+00, -4.77188780e-01, 0.00000000e+00, 0.00000000e+00, 0.00000000e+00, 5.45653410e-01, -1.24617845e+00, -2.61472116e+00, 0.00000000e+00, 5.98699036e+00, 0.00000000e+00, 0.00000000e+00, -2.57960264e+00, -1.41295917e-01, -1.30194721e-01, 2.89713312e+00, 0.00000000e+00, 8.0000000000, 4.0000000000, 0.2747317386
          40, -2.48226403e+00, -6.56421532e-01, 0.00000000e+00, 0.00000000e+00, 0.00000000e+00, 7.17158244e-01, -1.31519757e+00, -2.20517103e+00, 0.00000000e+00, 3.78150914e+00, 0.00000000e+00, 0.00000000e+00, -2.57406535e+00, -1.47417534e-01, -1.33239856e-01, 2.90305229e+00, 0.00000000e+00, 8.0000000000, 4.0000000000, 0.2787384957
          41, -2.09229775e+00, -8.30597935e-01, 0.00000000e+00, 0.00000000e+00, 0.00000000e+00, 8.83288400e-01, -1.37513740e+00, -1.78230186e+00, 0.00000000e+00, 2.51902594e+00, 0.00000000e+00, 0.00000000e+00, -2.56824250e+00, -1.54217206e-01, -1.36615701e-01, 2.90931224e+00, 0.00000000e+00, 8.0000000000, 4.0000000000, 0.2824699054
          42, -1.68788502e+00, -9.98981293e-01, 0.00000000e+00, 0.00000000e+00, 0.00000000e+00, 1.04299814e+00, -1.42552661e+00, -1.34714265e+00, 0.00000000e+00, 1.68960623e+00, 0.00000000e+00, 0.00000000e+00, -2.56199713e+00, -1.60848744e-01, -1.39817630e-01, 2.91604040e+00, 0.00000000e+00, 8.0000000000, 4.0000000000, 0.2872643495
          43, -1.27022045e+00, -1.16073110e+00, 0.00000000e+00, 0.00000000e+00, 0.00000000e+00, 1.19516145e+00, -1.46588655e+00, -9.01073413e-01, 0.00000000e+00, 1.09432792e+00, 0.00000000e+00, 0.00000000e+00, -2.55538806e+00, -1.66156483e-01, -1.41903361e-01, 2.92315921e+00, 0.00000000e+00, 8.0000000000, 4.0000000000, 0.2925982922
          44, -8.40825137e-01, -1.31491955e+00, 0.00000000e+00, 0.00000000e+00, 0.00000000e+00, 1.33859628e+00, -1.49574461e+00, -4.45812050e-01, 0.00000000e+00, 6.39449872e-01, 0.00000000e+00, 0.00000000e+00, -2.54866874e+00, -1.68883066e-01, -1.41647875e-01, 2.93038673e+00, 0.00000000e+00, 8.0000000000, 4.0000000000, 0.2975316942
          45, -4.01525926e-01, -1.46055382e+00, 0.00000000e+00, 0.00000000e+00, 0.00000000e+00, 1.47209499e+00, -1.51464999e+00, 1.66117001e-02, 0.00000000e+00, 2.74913475e-01, 0.00000000e+00, 0.00000000e+00, -2.54224987e+00, -1.68006477e-01, -1.37876742e-01, 2.93727612e+00, 0.00000000e+00, 8.0000000000, 4.0000000000, 0.3076595104
          46, 4.55734016e-02, -1.59660494e+00, 0.00000000e+00, 0.00000000e+00, 0.00000000e+00, 1.59445869e+00, -1.52219344e+00, 4.83891930e-01, 0.00000000e+00, -2.85439437e-02, 0.00000000e+00, 0.00000000e+00, -2.53664015e+00, -1.63087167e-01, -1.29894176e-01, 2.94327887e+00, 0.00000000e+00, 8.0000000000, 4.0000000000, 0.3167984009
          47, 4.98126199e-01, -1.72203967e+00, 0.00000000e+00, 0.00000000e+00, 0.00000000e+00, 1.70453309e+00, -1.51802859e+00, 9.53488097e-01, 0.00000000e+00, -2.89265228e-01, 0.00000000e+00, 0.00000000e+00, -2.53238319e+00, -1.54445245e-01, -1.17808682e-01, 2.94781236e+00, 0.00000000e+00, 8.0000000000, 4.0000000000, 0.3244634689
          48, 9.53580197e-01, -1.83584989e+00, 0.00000000e+00, 0.00000000e+00, 0.00000000e+00, 1.80124363e+00, -1.50188985e+00, 1.42266893e+00, 0.00000000e+00, -5.19421661e-01, 0.00000000e+00, 0.00000000e+00, -2.53000394e+00, -1.43063064e-01, -1.02566919e-01, 2.95031731e+00, 0.00000000e+00, 8.0000000000, 4.0000000000, 0.3313363835
          49, 1.40921357e+00, -1.93708247e+00, 0.00000000e+00, 0.00000000e+00, 0.00000000e+00, 1.88362817e+00, -1.47361128e+00, 1.88855532e+00, 0.00000000e+00, -7.27492811e-01, 0.00000000e+00, 0.00000000e+00, -2.52997031e+00, -1.30282990e-01, -8.56857058e-02, 2.95029900e+00, 0.00000000e+00, 8.0000000000, 4.0000000000, 0.3374653869
          50, 1.86216754e+00, -2.02487153e+00, 0.00000000e+00, 0.00000000e+00, 0.00000000e+00, 1.95086641e+00, -1.43314851e+00, 2.34816056e+00, 0.00000000e+00, -9.19647252e-01, 0.00000000e+00, 0.00000000e+00, -2.53266855e+00, -1.17476500e-01, -6.88591210e-02, 2.94735378e+00, 0.00000000e+00, 8.0000000000, 4.0000000000, 0.3477248638
          51, 2.30947497e+00, -2.09846133e+00, 0.00000000e+00, 0.00000000e+00, 0.00000000e+00, 2.00230386e+00, -1.38059293e+00, 2.79842416e+00, 0.00000000e+00, -1.10055636e+00, 0.00000000e+00, 0.00000000e+00, -2.53838665e+00, -1.05821776e-01, -5.36374932e-02, 2.94118704e+00, 0.00000000e+00, 8.0000000000, 4.0000000000, 0.3505985950
          52, 2.74808436e+00, -2.15723064e+00, 0.00000000e+00, 0.00000000e+00, 0.00000000e+00, 2.03747202e+00, -1.31618848e+00, 3.23624159e+00, 0.00000000e+00, -1.27389455e+00, 0.00000000e+00, 0.00000000e+00, -2.54729900e+00, -9.62218561e-02, -4.12620304e-02, 2.93163014e+00, 0.00000000e+00, 8.0000000000, 4.0000000000, 0.3531935273
          53, 3.17487984e+00, -2.20071179e+00, 0.00000000e+00, 0.00000000e+00, 0.00000000e+00, 2.05610380e+00, -1.24034446e+00, 3.65848876e+00, 0.00000000e+00, -1.44266044e+00, 0.00000000e+00, 0.00000000e+00, -2.55944541e+00, -8.93239793e-02, -3.26308765e-02, 2.91866362e+00, 0.00000000e+00, 8.0000000000, 4.0000000000, 0.3561284965
          54, 3.58669680e+00, -2.22860503e+00, 0.00000000e+00, 0.00000000e+00, 0.00000000e+00, 2.05814339e+00, -1.15364503e+00, 4.06204104e+00, 0.00000000e+00, -1.60939096e+00, 0.00000000e+00, 0.00000000e+00, -2.57469927e+00, -8.55850854e-02, -2.83347511e-02, 2.90245296e+00, 0.00000000e+00, 8.0000000000, 4.0000000000, 0.3612077614
          55, 3.98033718e+00, -2.24078624e+00, 0.00000000e+00, 0.00000000e+00, 0.00000000e+00, 2.04375201e+00, -1.05685237e+00, 4.44379006e+00, 0.00000000e+00, -1.77631275e+00, 0.00000000e+00, 0.00000000e+00, -2.59272223e+00, -8.53417059e-02, -2.87101281e-02, 2.88339932e+00, 0.00000000e+00, 8.0000000000, 4.0000000000, 0.3659305299
          56, 4.35258212e+00, -2.23731579e+00, 0.00000000e+00, 0.00000000e+00, 0.00000000e+00, 2.01330895e+00, -9.50911743e-01, 4.80065828e+00, 0.00000000e+00, -1.94544827e+00, 0.00000000e+00, 0.00000000e+00, -2.61290882e+00, -8.88605485e-02, -3.38796474e-02, 2.86220142e+00, 0.00000000e+00, 8.0000000000, 4.0000000000, 0.3706041801
          57, 4.70020819e+00, -2.21843944e+00, 0.00000000e+00, 0.00000000e+00, 0.00000000e+00, 1.96740818e+00, -8.36947897e-01, 5.12961487e+00, 0.00000000e+00, -2.11870025e+00, 0.00000000e+00, 0.00000000e+00, -2.63433617e+00, -9.63596688e-02, -4.37652653e-02, 2.83990959e+00, 0.00000000e+00, 8.0000000000, 4.0000000000, 0.3755983160
          58, 5.02000661e+00, -2.18458512e+00, 0.00000000e+00, 0.00000000e+00, 0.00000000e+00, 1.90685006e+00, -7.16256645e-01, 5.42769333e+00, 0.00000000e+00, -2.29792219e+00, 0.00000000e+00, 0.00000000e+00, -2.65575310e+00, -1.07997626e-01, -5.80680699e-02, 2.81793019e+00, 0.00000000e+00, 8.0000000000, 4.0000000000, 0.3802238459
          59, 5.30881030e+00, -2.13635226e+00, 0.00000000e+00, 0.00000000e+00, 0.00000000e+00, 1.83262893e+00, -5.90287160e-01, 5.69201448e+00, 0.00000000e+00, -2.48498827e+00, 0.00000000e+00, 0.00000000e+00, -2.67566261e+00, -1.23830858e-01, -7.62139313e-02, 2.79791574e+00, 0.00000000e+00, 8.0000000000, 4.0000000000, 0.3829398674
          60, 5.56352766e+00, -2.07449950e+00, 0.00000000e+00, 0.00000000e+00, 0.00000000e+00, 1.74591611e+00, -4.60620858e-01, 5.91981559e+00, 0.00000000e+00, -2.68186502e+00, 0.00000000e+00, 0.00000000e+00, -2.69254892e+00, -1.43739710e-01, -9.72729845e-02, 2.78148551e+00, 0.00000000e+00, 8.0000000000, 4.0000000000, 0.3869281355
          61, 5.78118238e+00, -1.99992907e+00, 0.00000000e+00, 0.00000000e+00, 0.00000000e+00, 1.64803829e+00, -3.28945387e-01, 6.10848434e+00, 0.00000000e+00, -2.89069371e+00, 0.00000000e+00, 0.00000000e+00, -2.70523893e+00, -1.67323753e-01, -1.19880431e-01, 2.76980520e+00, 0.00000000e+00, 8.0000000000, 4.0000000000, 0.3927983816
          62, 5.95896093e+00, -1.91366551e+00, 0.00000000e+00, 0.00000000e+00, 0.00000000e+00, 1.54045163e+00, -1.97021119e-01, 6.25559859e+00, 0.00000000e+00, -3.11389890e+00, 0.00000000e+00, 0.00000000e+00, -2.71327260e+00, -1.93772850e-01, -1.42221610e-01, 2.76319419e+00, 0.00000000e+00, 8.0000000000, 4.0000000000, 0.3983985589
          63, 6.09426762e+00, -1.81683117e+00, 0.00000000e+00, 0.00000000e+00, 0.00000000e+00, 1.42471257e+00, -6.66423968e-02, 6.35897257e+00, 0.00000000e+00, -3.35433899e+00, 0.00000000e+00, 0.00000000e+00, -2.71708249e+00, -2.21741519e-01, -1.62181763e-01, 2.76099089e+00, 0.00000000e+00, 8.0000000000, 4.0000000000, 0.4022650644
          64, 6.18478480e+00, -1.71062040e+00, 0.00000000e+00, 0.00000000e+00, 0.00000000e+00, 1.30244585e+00, 6.04038633e-02, 6.41670761e+00, 0.00000000e+00, -3.61552148e+00, 0.00000000e+00, 0.00000000e+00, -2.71786621e+00, -2.49299666e-01, -1.77744456e-01, 2.76176873e+00, 0.00000000e+00, 8.0000000000, 4.0000000000, 0.4065319089
          65, 6.22853563e+00, -1.59627298e+00, 0.00000000e+00, 0.00000000e+00, 0.00000000e+00, 1.17531027e+00, 1.82381019e-01, 6.42724518e+00, 0.00000000e+00, -3.90192386e+00, 0.00000000e+00, 0.00000000e+00, -2.71723108e+00, -2.74088646e-01, -1.87579112e-01, 2.76376311e+00, 0.00000000e+00, 8.0000000000, 4.0000000000, 0.4102658516
          66, 6.22394578e+00, -1.47504397e+00, 0.00000000e+00, 0.00000000e+00, 0.00000000e+00, 1.04496277e+00, 2.97648688e-01, 6.38941789e+00, 0.00000000e+00, -4.21949847e+00, 0.00000000e+00, 0.00000000e+00, -2.71680811e+00, -2.93803045e-01, -1.91533003e-01, 2.76527747e+00, 0.00000000e+00, 8.0000000000, 4.0000000000, 0.4135984430
          67, 6.16990094e+00, -1.34817892e+00, 0.00000000e+00, 0.00000000e+00, 0.00000000e+00, 9.13023544e-01, 4.04702422e-01, 6.30249791e+00, 0.00000000e+00, -4.57647040e+00, 0.00000000e+00, 0.00000000e+00, -2.71798331e+00, -3.06929269e-01, -1.90692928e-01, 2.76493145e+00, 0.00000000e+00, 8.0000000000, 4.0000000000, 0.4174647257
          68, 6.06579788e+00, -1.21688835e+00, 0.00000000e+00, 0.00000000e+00, 0.00000000e+00, 7.81041441e-01, 5.02212330e-01, 6.16623905e+00, 0.00000000e+00, -4.98467906e+00, 0.00000000e+00, 0.00000000e+00, -2.72177621e+00, -3.13355468e-01, -1.86968920e-01, 2.76174958e+00, 0.00000000e+00, 8.0000000000, 4.0000000000, 0.4214618494
          69, 5.91158799e+00, -1.08232338e+00, 0.00000000e+00, 0.00000000e+00, 0.00000000e+00, 6.50461358e-01, 5.89058478e-01, 5.98091185e+00, 0.00000000e+00, -5.46194245e+00, 0.00000000e+00, 0.00000000e+00, -2.72882121e+00, -3.14404016e-01, -1.82493006e-01, 2.75515326e+00, 0.00000000e+00, 8.0000000000, 4.0000000000, 0.4285387415
          70, 5.70780365e+00, -9.45555919e-01, 0.00000000e+00, 0.00000000e+00, 0.00000000e+00, 5.22594450e-01, 6.64357219e-01, 5.74732355e+00, 0.00000000e+00, -6.03645277e+00, 0.00000000e+00, 0.00000000e+00, -2.73939459e+00, -3.12260428e-01, -1.79157588e-01, 2.74491722e+00, 0.00000000e+00, 8.0000000000, 4.0000000000, 0.4473247352
          71, 5.45556958e+00, -8.07562825e-01, 0.00000000e+00, 0.00000000e+00, 0.00000000e+00, 3.98592088e-01, 7.27479562e-01, 5.46682455e+00, 0.00000000e+00, -6.75559772e+00, 0.00000000e+00, 0.00000000e+00, -2.75344922e+00, -3.09226322e-01, -1.78407206e-01, 2.73112600e+00, 0.00000000e+00, 8.0000000000, 4.0000000000, 0.4624609367
          72, 5.15659658e+00, -6.69213189e-01, 0.00000000e+00, 0.00000000e+00, 0.00000000e+00, 2.79424341e-01, 7.78061643e-01, 5.14129893e+00, 0.00000000e+00, -7.70546168e+00, 0.00000000e+00, 0.00000000e+00, -2.77064047e+00, -3.07204706e-01, -1.81221641e-01, 2.71414327e+00, 0.00000000e+00, 8.0000000000, 4.0000000000, 0.4708061271
          73, 4.81315723e+00, -5.31261022e-01, 0.00000000e+00, 0.00000000e+00, 0.00000000e+00, 1.65863641e-01, 8.16005060e-01, 4.77313906e+00, 0.00000000e+00, -9.05987270e+00, 0.00000000e+00, 0.00000000e+00, -2.79034378e+00, -3.07513101e-01, -1.88186779e-01, 2.69459133e+00, 0.00000000e+00, 8.0000000000, 4.0000000000, 0.4789371608
          74, 4.42804286e+00, -3.94342414e-01, 0.00000000e+00, 0.00000000e+00, 0.00000000e+00, 5.84745475e-02, 8.41467768e-01, 4.36520349e+00, 0.00000000e+00, -1.12289287e+01, 0.00000000e+00, 0.00000000e+00, -2.81167587e+00, -3.10912331e-01, -1.99581638e-01, 2.67332874e+00, 0.00000000e+00, 8.0000000000, 4.0000000000, 0.4892583158
          75, 4.00450485e+00, -2.58977216e-01, 0.00000000e+00, 0.00000000e+00, 0.00000000e+00, -4.23901580e-02, 8.54846249e-01, 3.92076092e+00, 0.00000000e+00, -1.54627689e+01, 0.00000000e+00, 0.00000000e+00, -2.83353969e+00, -3.17718662e-01, -2.15449103e-01, 2.65140768e+00, 0.00000000e+00, 8.0000000000, 4.0000000000, 0.4967964296
          76, 3.54618438e+00, -1.25575689e-01, 0.00000000e+00, 0.00000000e+00, 0.00000000e+00, -1.36585984e-01, 8.56749786e-01, 3.44342456e+00, 0.00000000e+00, -2.82394181e+01, 0.00000000e+00, 0.00000000e+00, -2.85471484e+00, -3.27923060e-01, -2.35641342e-01, 2.62999235e+00, 0.00000000e+00, 8.0000000000, 4.0000000000, 0.5111916724
          77, 3.05703337e+00, 5.55045143e-03, 0.00000000e+00, 0.00000000e+00, 0.00000000e+00, -2.24166482e-01, 8.47968031e-01, 2.93707917e+00, 0.00000000e+00, 5.50772024e+02, 0.00000000e+00, 0.00000000e+00, -2.87400371e+00, -3.41290427e-01, -2.59841556e-01, 2.61022972e+00, 0.00000000e+00, 8.0000000000, 4.0000000000, 0.5247914360
          78, 2.54123206e+00, 1.34173324e-01, 0.00000000e+00, 0.00000000e+00, 0.00000000e+00, -3.05366111e-01, 8.29434162e-01, 2.40580586e+00, 0.00000000e+00, 1.89399202e+01, 0.00000000e+00, 0.00000000e+00, -2.89041484e+00, -3.57436954e-01, -2.87567320e-01, 2.59308788e+00, 0.00000000e+00, 8.0000000000, 4.0000000000, 0.5342580025
          79, 2.00310780e+00, 2.60131890e-01, 0.00000000e+00, 0.00000000e+00, 0.00000000e+00, -3.80576811e-01, 8.02186159e-01, 1.85380873e+00, 0.00000000e+00, 7.70035462e+00, 0.00000000e+00, 0.00000000e+00, -2.90333035e+00, -3.75891508e-01, -3.18162639e-01, 2.57920586e+00, 0.00000000e+00, 8.0000000000, 4.0000000000, 0.5397982076
          80, 1.44705929e+00, 3.83313356e-01, 0.00000000e+00, 0.00000000e+00, 0.00000000e+00, -4.50319398e-01, 7.67328043e-01, 1.28534719e+00, 0.00000000e+00, 3.77513402e+00, 0.00000000e+00, 0.00000000e+00, -2.91259092e+00, -3.96146549e-01, -3.50787532e-01, 2.56881067e+00, 0.00000000e+00, 8.0000000000, 4.0000000000, 0.5448714383
          81, 8.77490390e-01, 5.03633474e-01, 0.00000000e+00, 0.00000000e+00, 0.00000000e+00, -5.15210929e-01, 7.25992698e-01, 7.04677702e-01, 0.00000000e+00, 1.74231944e+00, 0.00000000e+00, 0.00000000e+00, -2.91846274e+00, -4.17700309e-01, -3.84417224e-01, 2.56173412e+00, 0.00000000e+00, 8.0000000000, 4.0000000000, 0.5479358003
          82, 2.98755892e-01, 6.21017043e-01, 0.00000000e+00, 0.00000000e+00, 0.00000000e+00, -5.75929520e-01, 6.79308180e-01, 1.16007100e-01, 0.00000000e+00, 4.81075191e-01, 0.00000000e+00, 0.00000000e+00, -2.92150893e+00, -4.40087631e-01, -4.17865646e-01, 2.55751518e+00, 0.00000000e+00, 8.0000000000, 4.0000000000, 0.5512651322
          83, -2.84880021e-01, 7.35380515e-01, 0.00000000e+00, 0.00000000e+00, 0.00000000e+00, -6.33178327e-01, 6.28369545e-01, -4.76542593e-01, 0.00000000e+00, -3.87391311e-01, 0.00000000e+00, 0.00000000e+00, -2.92242858e+00, -4.62893931e-01, -4.49847009e-01, 2.55553741e+00, 0.00000000e+00, 8.0000000000, 4.0000000000, 0.5541353969
          84, -8.69272267e-01, 8.46616539e-01, 0.00000000e+00, 0.00000000e+00, 0.00000000e+00, -6.87650192e-01, 5.74216141e-01, -1.06895728e+00, 0.00000000e+00, -1.02676032e+00, 0.00000000e+00, 0.00000000e+00, -2.92192293e+00, -4.85747027e-01, -4.79080278e-01, 2.55515018e+00, 0.00000000e+00, 8.0000000000, 4.0000000000, 0.5598798103
          85, -1.45041228e+00, 9.54581350e-01, 0.00000000e+00, 0.00000000e+00, 0.00000000e+00, -7.39994836e-01, 5.17814680e-01, -1.65734405e+00, 0.00000000e+00, -1.51942240e+00, 0.00000000e+00, 0.00000000e+00, -2.92061577e+00, -5.08284715e-01, -5.04422701e-01, 2.55574705e+00, 0.00000000e+00, 8.0000000000, 4.0000000000, 0.5711302501
          86, -2.02443650e+00, 1.05908567e+00, 0.00000000e+00, 0.00000000e+00, 0.00000000e+00, -7.90789821e-01, 4.60048166e-01, -2.23793684e+00, 0.00000000e+00, -1.91149456e+00, 0.00000000e+00, 0.00000000e+00, -2.91902384e+00, -5.30102295e-01, -5.24997341e-01, 2.55680140e+00, 0.00000000e+00, 8.0000000000, 4.0000000000, 0.5823385876
          87, -2.58762803e+00, 1.15988939e+00, 0.00000000e+00, 0.00000000e+00, 0.00000000e+00, -8.40516450e-01, 4.01710289e-01, -2.80709655e+00, 0.00000000e+00, -2.23092656e+00, 0.00000000e+00, 0.00000000e+00, -2.91755801e+00, -5.50691648e-01, -5.40273237e-01, 2.55787410e+00, 0.00000000e+00, 8.0000000000, 4.0000000000, 0.5867333029
          88, -3.13641682e+00, 1.25670040e+00, 0.00000000e+00, 0.00000000e+00, 0.00000000e+00, -8.89541499e-01, 3.43504319e-01, -3.36131093e+00, 0.00000000e+00, -2.49575541e+00, 0.00000000e+00, 0.00000000e+00, -2.91653703e+00, -5.69391358e-01, -5.50074745e-01, 2.55860862e+00, 0.00000000e+00, 8.0000000000, 4.0000000000, 0.6021249673