TITLE = "Visualization of the volumetric solution"
VARIABLES = "x""y""Conservative_1""Conservative_2""Conservative_3""Conservative_4""Pressure""Temperature""C<sub>p</sub>""Mach""<greek>m</greek>""C<sub>f</sub>_x""C<sub>f</sub>_y""h""y<sup>+</sup>"
ZONE NODES= 5233, ELEMENTS= 10216, DATAPACKING=POINT, ZONETYPE=FEQUADRILATERAL
1.002196e+00	-1.341164e-03	1.290854e-01	7.517298e-01	2.025161e+00	2.782348e+04	1.112216e+04	3.001527e+02	9.701009e-02	4.818286e-02	1.846639e-05	0.000000e+00	0.000000e+00	0.000000e+00	0.000000e+00	
1.002622e+00	-9.635845e-04	1.290399e-01	5.845811e-01	1.659811e+00	2.781318e+04	1.112047e+04	3.002130e+02	8.087106e-02	3.926110e-02	1.846924e-05	0.000000e+00	0.000000e+00	0.000000e+00	0.000000e+00	
1.002280e+00	-1.654711e-03	1.289307e-01	9.178738e-01	1.994309e+00	2.779001e+04	1.110853e+04	3.001447e+02	-3.324945e-02	4.902779e-02	1.846601e-05	0.000000e+00	0.000000e+00	0.000000e+00	0.000000e+00	
1.001795e+00	-1.573667e-03	1.288980e-01	8.729302e-01	2.574989e+00	2.778483e+04	1.110246e+04	3.000567e+02	-9.120795e-02	6.074367e-02	1.846185e-05	0.000000e+00	0.000000e+00	0.000000e+00	0.000000e+00	
1.002448e+00	-2.051198e-03	1.289402e-01	1.119242e+00	1.921551e+00	2.779264e+04	1.110938e+04	3.001456e+02	-2.506532e-02	4.965726e-02	1.846605e-05	0.000000e+00	0.000000e+00	0.000000e+00	0.000000e+00	
1.002649e+00	-2.551924e-03	1.289507e-01	1.419216e+00	1.854434e+00	2.779603e+04	1.110995e+04	3.001366e+02	-1.961869e-02	5.214225e-02	1.846562e-05	0.000000e+00	0.000000e+00	0.000000e+00	0.000000e+00	
1.002754e+00	-1.514730e-03	1.288845e-01	9.472831e-01	1.694714e+00	2.777987e+04	1.110610e+04	3.001864e+02	-5.646642e-02	4.337016e-02	1.846798e-05	0.000000e+00	0.000000e+00	0.000000e+00	0.000000e+00	
1.003184e+00	-1.111301e-03	1.289456e-01	8.203272e-01	1.526565e+00	2.779285e+04	1.111248e+04	3.002167e+02	4.516115e-03	3.869273e-02	1.846941e-05	0.000000e+00	0.000000e+00	0.000000e+00	0.000000e+00	
1.003049e+00	-2.067377e-03	1.289510e-01	1.214394e+00	1.685787e+00	2.779514e+04	1.111136e+04	3.001738e+02	-6.177748e-03	4.638872e-02	1.846739e-05	0.000000e+00	0.000000e+00	0.000000e+00	0.000000e+00	
1.003145e+00	-7.122622e-04	1.289115e-01	4.787560e-01	1.489121e+00	2.778502e+04	1.111021e+04	3.002348e+02	-1.715075e-02	3.493159e-02	1.847027e-05	0.000000e+00	0.000000e+00	0.000000e+00	0.000000e+00	
1.002165e+00	-9.971407e-04	1.288334e-01	5.524325e-01	1.974048e+00	2.776944e+04	1.110125e+04	3.001746e+02	-1.027550e-01	4.581064e-02	1.846743e-05	0.000000e+00	0.000000e+00	0.000000e+00	0.000000e+00	
1.001764e+00	-1.193354e-03	1.287698e-01	6.517574e-01	2.634313e+00	2.775752e+04	1.109157e+04	3.000608e+02	-1.952471e-01	6.068773e-02	1.846204e-05	0.000000e+00	0.000000e+00	0.000000e+00	0.000000e+00	
1.002663e+00	-4.061690e-04	1.290526e-01	-2.675251e-01	1.396084e+00	2.781484e+04	1.112280e+04	3.002464e+02	1.031540e-01	3.170937e-02	1.847082e-05	0.000000e+00	0.000000e+00	0.000000e+00	0.000000e+00	
1.002159e+00	-6.565734e-04	1.290264e-01	-1.939629e-02	1.835648e+00	2.781135e+04	1.111931e+04	3.002133e+02	6.981372e-02	4.096108e-02	1.846925e-05	0.000000e+00	0.000000e+00	0.000000e+00	0.000000e+00	
1.001391e+00	-1.390971e-03	1.290159e-01	9.131946e-01	3.739172e+00	2.781684e+04	1.110377e+04	2.998178e+02	-7.871864e-02	8.594783e-02	1.845054e-05	0.000000e+00	0.000000e+00	0.000000e+00	0.000000e+00	
1.001922e+00	-1.995592e-03	1.288759e-01	1.100961e+00	2.361793e+00	2.777979e+04	1.110138e+04	3.000790e+02	-1.015677e-01	5.822406e-02	1.846290e-05	0.000000e+00	0.000000e+00	0.000000e+00	0.000000e+00	
1.001482e+00	-1.811552e-03	1.289661e-01	1.099749e+00	3.082936e+00	2.780219e+04	1.110426e+04	2.999470e+02	-7.399169e-02	7.310179e-02	1.845665e-05	0.000000e+00	0.000000e+00	0.000000e+00	0.000000e+00	
1.002084e+00	-2.434752e-03	1.288421e-01	1.411678e+00	2.151917e+00	2.777296e+04	1.109890e+04	3.000908e+02	-1.251986e-01	5.751929e-02	1.846346e-05	0.000000e+00	0.000000e+00	0.000000e+00	0.000000e+00	
1.002252e+00	-2.927349e-03	1.289002e-01	1.706449e+00	1.991139e+00	2.778636e+04	1.110387e+04	3.000898e+02	-7.770955e-02	5.858127e-02	1.846341e-05	0.000000e+00	0.000000e+00	0.000000e+00	0.000000e+00	
1.002865e+00	-3.076817e-03	1.289437e-01	1.742808e+00	1.785767e+00	2.779599e+04	1.110874e+04	3.001201e+02	-3.122171e-02	5.572116e-02	1.846485e-05	0.000000e+00	0.000000e+00	0.000000e+00	0.000000e+00	
1.003292e+00	-2.630672e-03	1.289140e-01	1.517177e+00	1.693015e+00	2.778865e+04	1.110744e+04	3.001540e+02	-4.362151e-02	5.077446e-02	1.846645e-05	0.000000e+00	0.000000e+00	0.000000e+00	0.000000e+00	
1.003360e+00	-1.616992e-03	1.289999e-01	1.060738e+00	1.528351e+00	2.780495e+04	1.111661e+04	3.002021e+02	4.402079e-02	4.152000e-02	1.846872e-05	0.000000e+00	0.000000e+00	0.000000e+00	0.000000e+00	
1.003727e+00	-8.491770e-04	1.290355e-01	6.433567e-01	1.433522e+00	2.781145e+04	1.112075e+04	3.002308e+02	8.355777e-02	3.505625e-02	1.847008e-05	0.000000e+00	0.000000e+00	0.000000e+00	0.000000e+00	
1.003703e+00	-2.140886e-03	1.289499e-01	1.343299e+00	1.572611e+00	2.779548e+04	1.111156e+04	3.001817e+02	-4.302221e-03	4.617808e-02	1.846776e-05	0.000000e+00	0.000000e+00	0.000000e+00	0.000000e+00	
1.003216e+00	-1.902252e-04	1.288355e-01	-1.322376e-01	1.285639e+00	2.776668e+04	1.110408e+04	3.002460e+02	-7.574544e-02	2.887893e-02	1.847080e-05	0.000000e+00	0.000000e+00	0.000000e+00	0.000000e+00	
1.002840e+00	1.685042e-04	1.291201e-01	-9.000024e-01	9.857405e-01	2.782625e+04	1.112774e+04	3.002227e+02	1.503248e-01	2.976127e-02	1.846970e-05	0.000000e+00	0.000000e+00	0.000000e+00	0.000000e+00	
1.001755e+00	-8.457104e-04	1.294266e-01	-1.491761e-01	2.485399e+00	2.789952e+04	1.115023e+04	3.001170e+02	3.651637e-01	5.539357e-02	1.846470e-05	0.000000e+00	0.000000e+00	0.000000e+00	0.000000e+00	
1.001386e+00	-1.028693e-03	1.292444e-01	4.777912e-02	3.901491e+00	2.786750e+04	1.112344e+04	2.998180e+02	1.092301e-01	8.697084e-02	1.845055e-05	0.000000e+00	0.000000e+00	0.000000e+00	0.000000e+00	
1.002392e+00	5.330298e-04	1.284699e-01	-4.649853e-01	9.379931e-01	2.768334e+04	1.107163e+04	3.002206e+02	-3.857553e-01	2.346081e-02	1.846960e-05	0.000000e+00	0.000000e+00	0.000000e+00	0.000000e+00	
1.002298e+00	4.449120e-05	1.287353e-01	-1.016526e+00	1.006386e+00	2.774542e+04	1.109499e+04	3.002339e+02	-1.625771e-01	3.198830e-02	1.847023e-05	0.000000e+00	0.000000e+00	0.000000e+00	0.000000e+00	
1.002200e+00	-3.478525e-04	1.285976e-01	-7.740422e-01	1.371426e+00	2.771841e+04	1.108351e+04	3.002443e+02	-2.722977e-01	3.525352e-02	1.847072e-05	0.000000e+00	0.000000e+00	0.000000e+00	0.000000e+00	
1.001761e+00	-4.799944e-04	1.293670e-01	-1.318861e+00	1.865216e+00	2.788722e+04	1.114682e+04	3.001634e+02	3.326032e-01	5.084152e-02	1.846689e-05	0.000000e+00	0.000000e+00	0.000000e+00	0.000000e+00	
1.001039e+00	-1.186731e-03	1.283760e-01	8.754836e-01	5.322510e+00	2.769267e+04	1.103174e+04	2.993577e+02	-7.669006e-01	1.211394e-01	1.842875e-05	0.000000e+00	0.000000e+00	0.000000e+00	0.000000e+00	
1.003532e+00	-3.279861e-03	1.289683e-01	1.794132e+00	1.673288e+00	2.780188e+04	1.111142e+04	3.001353e+02	-5.625316e-03	5.477279e-02	1.846556e-05	0.000000e+00	0.000000e+00	0.000000e+00	0.000000e+00	
1.001086e+00	-1.618876e-03	1.290492e-01	1.604007e+00	4.593347e+00	2.783257e+04	1.109634e+04	2.995400e+02	-1.496607e-01	1.086633e-01	1.843739e-05	0.000000e+00	0.000000e+00	0.000000e+00	0.000000e+00	
1.000721e+00	-1.419734e-03	1.279158e-01	2.564908e+00	6.579453e+00	2.761530e+04	1.096815e+04	2.987030e+02	-1.374451e+00	1.593375e-01	1.839772e-05	0.000000e+00	0.000000e+00	0.000000e+00	0.000000e+00	
1.001567e+00	-2.280363e-03	1.290783e-01	1.369184e+00	2.702062e+00	2.782556e+04	1.111601e+04	3.000033e+02	3.821932e-02	6.758605e-02	1.845932e-05	0.000000e+00	0.000000e+00	0.000000e+00	0.000000e+00	
1.001127e+00	-2.093383e-03	1.281576e-01	1.799606e+00	3.448698e+00	2.763271e+04	1.102947e+04	2.998062e+02	-7.885767e-01	8.744522e-02	1.844999e-05	0.000000e+00	0.000000e+00	0.000000e+00	0.000000e+00	
1.001693e+00	-2.800685e-03	1.288991e-01	1.778203e+00	2.304278e+00	2.778698e+04	1.110165e+04	3.000323e+02	-9.896819e-02	6.502834e-02	1.846069e-05	0.000000e+00	0.000000e+00	0.000000e+00	0.000000e+00	
1.001885e+00	-3.305934e-03	1.289304e-01	1.992860e+00	2.031592e+00	2.779402e+04	1.110505e+04	3.000513e+02	-6.650725e-02	6.356383e-02	1.846159e-05	0.000000e+00	0.000000e+00	0.000000e+00	0.000000e+00	
1.002469e+00	-3.498346e-03	1.289652e-01	1.991692e+00	1.823516e+00	2.780153e+04	1.110930e+04	3.000853e+02	-2.582044e-02	6.029496e-02	1.846320e-05	0.000000e+00	0.000000e+00	0.000000e+00	0.000000e+00	
1.003330e+00	-3.696472e-03	1.289642e-01	2.039978e+00	1.667285e+00	2.780201e+04	1.111004e+04	3.001074e+02	-1.880083e-02	5.882549e-02	1.846425e-05	0.000000e+00	0.000000e+00	0.000000e+00	0.000000e+00	
1.004006e+00	-2.761150e-03	1.289400e-01	1.626160e+00	1.591223e+00	2.779496e+04	1.110995e+04	3.001616e+02	-1.961688e-02	5.080419e-02	1.846681e-05	0.000000e+00	0.000000e+00	0.000000e+00	0.000000e+00	
1.003878e+00	-1.099413e-04	1.290203e-01	-8.442137e-02	1.336347e+00	2.780595e+04	1.111960e+04	3.002352e+02	7.254192e-02	2.987765e-02	1.847029e-05	0.000000e+00	0.000000e+00	0.000000e+00	0.000000e+00	
1.004045e+00	-1.538292e-03	1.288709e-01	1.124780e+00	1.477002e+00	2.777741e+04	1.110562e+04	3.002051e+02	-6.107164e-02	4.147503e-02	1.846886e-05	0.000000e+00	0.000000e+00	0.000000e+00	0.000000e+00	
1.004453e+00	-7.574145e-04	1.289284e-01	6.711228e-01	1.424698e+00	2.778822e+04	1.111144e+04	3.002286e+02	-5.403686e-03	3.516553e-02	1.846998e-05	0.000000e+00	0.000000e+00	0.000000e+00	0.000000e+00	
1.004456e+00	-2.157136e-03	1.289862e-01	1.419986e+00	1.516739e+00	2.780378e+04	1.111482e+04	3.001853e+02	2.685792e-02	4.637640e-02	1.846793e-05	0.000000e+00	0.000000e+00	0.000000e+00	0.000000e+00	
1.003424e+00	3.760514e-04	1.289193e-01	-7.322668e-01	1.135323e+00	2.778165e+04	1.110983e+04	3.002063e+02	-2.081104e-02	3.017000e-02	1.846892e-05	0.000000e+00	0.000000e+00	0.000000e+00	0.000000e+00	
1.002946e+00	7.347061e-04	1.290714e-01	-5.783733e-01	1.005907e+00	2.781085e+04	1.112225e+04	3.001880e+02	9.790161e-02	2.588248e-02	1.846806e-05	0.000000e+00	0.000000e+00	0.000000e+00	0.000000e+00	
1.004113e+00	5.722794e-04	1.289347e-01	-7.984164e-01	1.163350e+00	2.778437e+04	1.111066e+04	3.001930e+02	-1.287875e-02	3.150654e-02	1.846829e-05	0.000000e+00	0.000000e+00	0.000000e+00	0.000000e+00	
1.002475e+00	1.041950e-03	1.293036e-01	1.266250e+00	2.210681e+00	2.786559e+04	1.113620e+04	3.000245e+02	2.311287e-01	5.674156e-02	1.846032e-05	0.000000e+00	0.000000e+00	0.000000e+00	0.000000e+00	
1.001395e+00	-6.761299e-04	1.279335e-01	-1.114330e+00	2.761299e+00	2.758090e+04	1.101850e+04	3.000327e+02	-8.933949e-01	6.702840e-02	1.846071e-05	0.000000e+00	0.000000e+00	0.000000e+00	0.000000e+00	
1.001056e+00	-8.691147e-04	1.286119e-01	-1.673180e+00	4.900523e+00	2.774289e+04	1.105546e+04	2.994511e+02	-5.402822e-01	1.160628e-01	1.843318e-05	0.000000e+00	0.000000e+00	0.000000e+00	0.000000e+00	
1.001979e+00	7.895842e-04	1.296358e-01	1.894784e+00	3.137504e+00	2.794775e+04	1.115837e+04	2.998516e+02	4.429979e-01	8.144753e-02	1.845214e-05	0.000000e+00	0.000000e+00	0.000000e+00	0.000000e+00	
1.001920e+00	3.319473e-04	1.291100e-01	-3.302007e-01	1.464785e+00	2.782437e+04	1.112626e+04	3.002062e+02	1.361258e-01	3.348259e-02	1.846892e-05	0.000000e+00	0.000000e+00	0.000000e+00	0.000000e+00	
1.001837e+00	-8.027467e-05	1.296300e-01	-1.640702e+00	1.257573e+00	2.794189e+04	1.117016e+04	3.001818e+02	5.556105e-01	4.591346e-02	1.846776e-05	0.000000e+00	0.000000e+00	0.000000e+00	0.000000e+00	
1.001468e+00	-2.858806e-04	1.280614e-01	-1.800349e+00	1.896919e+00	2.760681e+04	1.103204e+04	3.001013e+02	-7.639943e-01	5.880481e-02	1.846396e-05	0.000000e+00	0.000000e+00	0.000000e+00	0.000000e+00	
1.000703e+00	-1.011855e-03	1.295455e-01	-1.305634e+00	7.549447e+00	2.797325e+04	1.109868e+04	2.984551e+02	-1.273726e-01	1.707670e-01	1.838597e-05	0.000000e+00	0.000000e+00	0.000000e+00	0.000000e+00	
1.000346e+00	-1.284796e-03	1.282900e-01	2.694629e+00	9.948518e+00	2.775446e+04	1.093617e+04	2.969634e+02	-1.679995e+00	2.325621e-01	1.831512e-05	0.000000e+00	0.000000e+00	0.000000e+00	0.000000e+00	
3.124498e-03	-6.507446e-02	1.268412e-01	1.766215e+00	-9.120163e+00	2.746924e+04	1.085163e+04	2.980332e+02	-2.487726e+00	2.116196e-01	1.836595e-05	0.000000e+00	0.000000e+00	0.000000e+00	0.000000e+00	
2.537646e-03	-6.179232e-02	1.268696e-01	1.546959e+00	-9.088591e+00	2.747416e+04	1.085568e+04	2.980778e+02	-2.449034e+00	2.099553e-01	1.836807e-05	0.000000e+00	0.000000e+00	0.000000e+00	0.000000e+00	
2.003081e-03	-5.850927e-02	1.270305e-01	1.325456e+00	-9.004079e+00	2.750691e+04	1.087235e+04	2.981576e+02	-2.289707e+00	2.069735e-01	1.837185e-05	0.000000e+00	0.000000e+00	0.000000e+00	0.000000e+00	
1.004370e+00	-3.765524e-03	1.289648e-01	2.005450e+00	1.569982e+00	2.780247e+04	1.111093e+04	3.001301e+02	-1.032630e-02	5.686385e-02	1.846532e-05	0.000000e+00	0.000000e+00	0.000000e+00	0.000000e+00	
1.000719e+00	-1.911159e-03	1.293692e-01	2.499715e+00	4.834292e+00	2.790807e+04	1.111744e+04	2.993673e+02	5.188809e-02	1.212839e-01	1.842921e-05	0.000000e+00	0.000000e+00	0.000000e+00	0.000000e+00	
1.000380e+00	-1.653237e-03	1.272873e-01	5.083217e+00	6.015568e+00	2.749393e+04	1.090011e+04	2.983159e+02	-2.024459e+00	1.786962e-01	1.837937e-05	0.000000e+00	0.000000e+00	0.000000e+00	0.000000e+00	
1.001170e+00	-2.562289e-03	1.288379e-01	2.001520e+00	2.902018e+00	2.777744e+04	1.109168e+04	2.999053e+02	-1.941767e-01	7.881564e-02	1.845468e-05	0.000000e+00	0.000000e+00	0.000000e+00	0.000000e+00	
1.000731e+00	-2.371083e-03	1.292047e-01	2.216121e+00	3.487365e+00	2.786066e+04	1.111784e+04	2.997592e+02	5.569449e-02	9.213836e-02	1.844776e-05	0.000000e+00	0.000000e+00	0.000000e+00	0.000000e+00	
1.001304e+00	-3.210870e-03	1.288793e-01	2.171922e+00	2.357638e+00	2.778494e+04	1.109803e+04	2.999804e+02	-1.335440e-01	7.163531e-02	1.845824e-05	0.000000e+00	0.000000e+00	0.000000e+00	0.000000e+00	
1.001562e+00	-3.750765e-03	1.288423e-01	2.236184e+00	2.060307e+00	2.777643e+04	1.109622e+04	3.000177e+02	-1.508477e-01	6.796443e-02	1.846000e-05	0.000000e+00	0.000000e+00	0.000000e+00	0.000000e+00	
1.000041e+00	-1.492935e-03	1.294445e-01	6.626844e+00	5.670188e+00	2.797103e+04	1.107088e+04	2.979401e+02	-3.928933e-01	1.947146e-01	1.836153e-05	0.000000e+00	0.000000e+00	0.000000e+00	0.000000e+00	
9.997621e-01	-1.104658e-03	1.309541e-01	7.412362e+00	2.348566e+00	2.827648e+04	1.121826e+04	2.984259e+02	1.015135e+00	1.714524e-01	1.838459e-05	0.000000e+00	0.000000e+00	0.000000e+00	0.000000e+00	
1.002182e+00	-3.857640e-03	1.289245e-01	2.222102e+00	1.880036e+00	2.779390e+04	1.110442e+04	3.000480e+02	-7.250064e-02	6.501599e-02	1.846143e-05	0.000000e+00	0.000000e+00	0.000000e+00	0.000000e+00	
1.002830e+00	-4.198816e-03	1.289274e-01	2.269408e+00	1.710416e+00	2.779505e+04	1.110549e+04	3.000701e+02	-6.226162e-02	6.347248e-02	1.846248e-05	0.000000e+00	0.000000e+00	0.000000e+00	0.000000e+00	
1.003847e+00	-4.501304e-03	1.289680e-01	2.351067e+00	1.581082e+00	2.780498e+04	1.110954e+04	3.000852e+02	-2.355821e-02	6.326050e-02	1.846319e-05	0.000000e+00	0.000000e+00	0.000000e+00	0.000000e+00	
1.004940e+00	-3.003392e-03	1.289695e-01	1.727839e+00	1.509162e+00	2.780198e+04	1.111263e+04	3.001650e+02	5.960279e-03	5.121540e-02	1.846697e-05	0.000000e+00	0.000000e+00	0.000000e+00	0.000000e+00	
1.004652e+00	1.933174e-05	1.289051e-01	-8.485239e-02	1.324757e+00	2.778075e+04	1.110957e+04	3.002323e+02	-2.331168e-02	2.964680e-02	1.847015e-05	0.000000e+00	0.000000e+00	0.000000e+00	0.000000e+00	
1.004847e+00	-1.460826e-03	1.290076e-01	1.132801e+00	1.467335e+00	2.780703e+04	1.111748e+04	3.002075e+02	5.233315e-02	4.136863e-02	1.846898e-05	0.000000e+00	0.000000e+00	0.000000e+00	0.000000e+00	
1.005278e+00	-6.437605e-04	1.289457e-01	6.236219e-01	1.410970e+00	2.779177e+04	1.111302e+04	3.002311e+02	9.648552e-03	3.444144e-02	1.847009e-05	0.000000e+00	0.000000e+00	0.000000e+00	0.000000e+00	
1.005363e+00	-2.194775e-03	1.289398e-01	1.465484e+00	1.456860e+00	2.779397e+04	1.111097e+04	3.001894e+02	-9.943191e-03	4.614078e-02	1.846812e-05	0.000000e+00	0.000000e+00	0.000000e+00	0.000000e+00	
1.005524e+00	-3.826520e-03	1.289628e-01	2.030725e+00	1.474609e+00	2.780258e+04	1.111127e+04	3.001438e+02	-7.083141e-03	5.603176e-02	1.846597e-05	0.000000e+00	0.000000e+00	0.000000e+00	0.000000e+00	
1.004940e+00	8.477186e-04	1.288703e-01	-6.835989e-01	1.092813e+00	2.777003e+04	1.110544e+04	3.002017e+02	-6.278876e-02	2.879706e-02	1.846871e-05	0.000000e+00	0.000000e+00	0.000000e+00	0.000000e+00	
1.003557e+00	1.017847e-03	1.286432e-01	-5.614321e-01	1.205738e+00	2.771768e+04	1.108432e+04	3.001600e+02	-2.645167e-01	2.976824e-02	1.846673e-05	0.000000e+00	0.000000e+00	0.000000e+00	0.000000e+00	
1.003011e+00	1.373196e-03	1.290402e-01	7.087445e-01	1.774982e+00	2.780303e+04	1.111555e+04	3.000794e+02	3.385891e-02	4.265065e-02	1.846292e-05	0.000000e+00	0.000000e+00	0.000000e+00	0.000000e+00	
1.004337e+00	1.479572e-03	1.291147e-01	-4.663339e-01	1.183197e+00	2.781888e+04	1.112504e+04	3.001624e+02	1.245628e-01	2.836019e-02	1.846685e-05	0.000000e+00	0.000000e+00	0.000000e+00	0.000000e+00	
1.002733e+00	1.692528e-03	1.288480e-01	3.752134e+00	3.827432e+00	2.779256e+04	1.107243e+04	2.993613e+02	-3.780950e-01	1.199296e-01	1.842892e-05	0.000000e+00	0.000000e+00	0.000000e+00	0.000000e+00	
1.002045e+00	1.324689e-03	1.297959e-01	4.649894e+00	5.448732e+00	2.802525e+04	1.113104e+04	2.987480e+02	1.818316e-01	1.592720e-01	1.839986e-05	0.000000e+00	0.000000e+00	0.000000e+00	0.000000e+00	
1.001130e+00	-4.690033e-04	1.319855e-01	-3.916492e+00	3.019017e+00	2.846953e+04	1.135076e+04	2.995910e+02	2.281044e+00	1.079766e-01	1.843980e-05	0.000000e+00	0.000000e+00	0.000000e+00	0.000000e+00	
1.000808e+00	-6.282362e-04	1.254314e-01	-3.841987e+00	5.419470e+00	2.707637e+04	1.076018e+04	2.988434e+02	-3.361423e+00	1.528261e-01	1.840438e-05	0.000000e+00	0.000000e+00	0.000000e+00	0.000000e+00	
1.001601e+00	1.042373e-03	1.293634e-01	5.709426e+00	7.191512e+00	2.797146e+04	1.105823e+04	2.977862e+02	-5.137839e-01	2.051828e-01	1.835422e-05	0.000000e+00	0.000000e+00	0.000000e+00	0.000000e+00	
1.001536e+00	5.868755e-04	1.289865e-01	3.660768e+00	4.745171e+00	2.783409e+04	1.107794e+04	2.991887e+02	-3.254467e-01	1.339953e-01	1.842075e-05	0.000000e+00	0.000000e+00	0.000000e+00	0.000000e+00	
1.001505e+00	1.307887e-04	1.278880e-01	1.324083e-01	1.915310e+00	2.756293e+04	1.101941e+04	3.001641e+02	-8.847262e-01	4.322315e-02	1.846693e-05	0.000000e+00	0.000000e+00	0.000000e+00	0.000000e+00	
1.001164e+00	-5.899345e-05	1.287297e-01	-5.379273e-01	2.642191e+00	2.774649e+04	1.108730e+04	3.000388e+02	-2.360390e-01	6.032078e-02	1.846100e-05	0.000000e+00	0.000000e+00	0.000000e+00	0.000000e+00	
1.000464e+00	-6.984605e-04	1.335101e-01	-9.781255e+00	6.222869e+00	2.890589e+04	1.136103e+04	2.964380e+02	2.379199e+00	2.515735e-01	1.829013e-05	0.000000e+00	0.000000e+00	0.000000e+00	0.000000e+00	
1.000000e+00	-1.000000e-03	1.131203e-01	-1.406244e+00	6.178922e+00	2.441756e+04	9.696027e+03	2.985957e+02	-1.352853e+01	1.617139e-01	1.839264e-05	0.000000e+00	0.000000e+00	0.000000e+00	0.000000e+00	
4.487486e-03	-7.179962e-02	1.267840e-01	2.022174e+00	-9.257919e+00	2.746063e+04	1.084259e+04	2.979197e+02	-2.574016e+00	2.160087e-01	1.836056e-05	0.000000e+00	0.000000e+00	0.000000e+00	0.000000e+00	
6.075662e-03	-7.857247e-02	1.265770e-01	2.367346e+00	-9.423942e+00	2.742101e+04	1.081922e+04	2.977637e+02	-2.797315e+00	2.219122e-01	1.835315e-05	0.000000e+00	0.000000e+00	0.000000e+00	0.000000e+00	
-1.121651e-03	-6.383348e-02	1.270103e-01	1.720525e+00	-8.972628e+00	2.750449e+04	1.087036e+04	2.981503e+02	-2.308732e+00	2.078046e-01	1.837151e-05	0.000000e+00	0.000000e+00	0.000000e+00	0.000000e+00	
-1.684660e-03	-6.933143e-02	1.269736e-01	2.001107e+00	-9.014461e+00	2.749869e+04	1.086517e+04	2.980942e+02	-2.358309e+00	2.101098e-01	1.836885e-05	0.000000e+00	0.000000e+00	0.000000e+00	0.000000e+00	
-1.520757e-03	-6.031928e-02	1.270673e-01	1.506979e+00	-8.918963e+00	2.751509e+04	1.087725e+04	2.982057e+02	-2.242871e+00	2.056299e-01	1.837414e-05	0.000000e+00	0.000000e+00	0.000000e+00	0.000000e+00	
-4.610994e-03	-6.229655e-02	1.271367e-01	1.660254e+00	-8.848730e+00	2.753029e+04	1.088460e+04	2.982442e+02	-2.172645e+00	2.045446e-01	1.837596e-05	0.000000e+00	0.000000e+00	0.000000e+00	0.000000e+00	
1.078855e-03	-5.179275e-02	1.270896e-01	1.063925e+00	-8.874472e+00	2.751697e+04	1.088107e+04	2.982580e+02	-2.206430e+00	2.031358e-01	1.837662e-05	0.000000e+00	0.000000e+00	0.000000e+00	0.000000e+00	
-3.425317e-03	-5.503867e-02	1.272043e-01	1.275813e+00	-8.764296e+00	2.754153e+04	1.089328e+04	2.983233e+02	-2.089726e+00	2.010833e-01	1.837972e-05	0.000000e+00	0.000000e+00	0.000000e+00	0.000000e+00	
1.004954e+00	-4.694183e-03	1.289898e-01	2.337361e+00	1.477568e+00	2.781021e+04	1.111223e+04	3.001069e+02	2.096219e-03	6.172883e-02	1.846422e-05	0.000000e+00	0.000000e+00	0.000000e+00	0.000000e+00	
1.001483e+00	-4.212564e-03	1.289250e-01	2.480667e+00	1.963972e+00	2.779586e+04	1.110282e+04	3.000036e+02	-8.781780e-02	7.067851e-02	1.845933e-05	0.000000e+00	0.000000e+00	0.000000e+00	0.000000e+00	
1.000287e+00	-2.231624e-03	1.280329e-01	3.430383e+00	3.968141e+00	2.761906e+04	1.100464e+04	2.994228e+02	-1.025764e+00	1.181031e-01	1.843184e-05	0.000000e+00	0.000000e+00	0.000000e+00	0.000000e+00	
1.000733e+00	-3.056307e-03	1.289613e-01	2.549862e+00	2.869172e+00	2.780726e+04	1.110006e+04	2.998446e+02	-1.141893e-01	8.574391e-02	1.845181e-05	0.000000e+00	0.000000e+00	0.000000e+00	0.000000e+00	
1.000966e+00	-3.684187e-03	1.288536e-01	2.439138e+00	2.230118e+00	2.778096e+04	1.109543e+04	2.999701e+02	-1.583650e-01	7.387252e-02	1.845775e-05	0.000000e+00	0.000000e+00	0.000000e+00	0.000000e+00	
9.996024e-01	-1.963680e-03	1.271319e-01	4.487989e+00	2.754051e+00	2.742447e+04	1.092617e+04	2.993944e+02	-1.775538e+00	1.194057e-01	1.843049e-05	0.000000e+00	0.000000e+00	0.000000e+00	0.000000e+00	
9.990485e-01	-1.418453e-03	1.277173e-01	4.766569e+00	2.324440e+00	2.755042e+04	1.097613e+04	2.993848e+02	-1.298219e+00	1.197068e-01	1.843004e-05	0.000000e+00	0.000000e+00	0.000000e+00	0.000000e+00	
1.002195e+00	-4.559863e-03	1.289907e-01	2.462123e+00	1.753483e+00	2.780976e+04	1.110974e+04	3.000377e+02	-2.167412e-02	6.748399e-02	1.846095e-05	0.000000e+00	0.000000e+00	0.000000e+00	0.000000e+00	
1.002859e+00	-4.978516e-03	1.289790e-01	2.492639e+00	1.646181e+00	2.780790e+04	1.110932e+04	3.000537e+02	-2.564749e-02	6.669482e-02	1.846170e-05	0.000000e+00	0.000000e+00	0.000000e+00	0.000000e+00	
1.001650e+00	-5.126523e-03	1.288416e-01	2.674694e+00	1.791802e+00	2.777920e+04	1.109559e+04	3.000023e+02	-1.568476e-01	7.196274e-02	1.845927e-05	0.000000e+00	0.000000e+00	0.000000e+00	0.000000e+00	
1.004599e+00	-5.756970e-03	1.289986e-01	2.605342e+00	1.458667e+00	2.781376e+04	1.111168e+04	3.000718e+02	-3.112220e-03	6.665410e-02	1.846256e-05	0.000000e+00	0.000000e+00	0.000000e+00	0.000000e+00	
1.003573e+00	-5.519792e-03	1.289921e-01	2.625470e+00	1.550444e+00	2.781215e+04	1.111045e+04	3.000536e+02	-1.490710e-02	6.807057e-02	1.846170e-05	0.000000e+00	0.000000e+00	0.000000e+00	0.000000e+00	
1.006006e+00	-2.912090e-03	1.289724e-01	1.727727e+00	1.435784e+00	2.780270e+04	1.111325e+04	3.001751e+02	1.189561e-02	5.014906e-02	1.846744e-05	0.000000e+00	0.000000e+00	0.000000e+00	0.000000e+00	
1.005532e+00	1.780706e-04	1.290119e-01	-4.283196e-02	1.299117e+00	2.780368e+04	1.111885e+04	3.002345e+02	6.540375e-02	2.900516e-02	1.847026e-05	0.000000e+00	0.000000e+00	0.000000e+00	0.000000e+00	
1.005753e+00	-1.365209e-03	1.289481e-01	1.098468e+00	1.423042e+00	2.779403e+04	1.111260e+04	3.002140e+02	5.647583e-03	4.013608e-02	1.846929e-05	0.000000e+00	0.000000e+00	0.000000e+00	0.000000e+00	
1.006210e+00	-5.065020e-04	1.289701e-01	6.183276e-01	1.375711e+00	2.779694e+04	1.111525e+04	3.002344e+02	3.096593e-02	3.366773e-02	1.847025e-05	0.000000e+00	0.000000e+00	0.000000e+00	0.000000e+00	
1.006329e+00	-1.970216e-03	1.289914e-01	1.410004e+00	1.403169e+00	2.780480e+04	1.111578e+04	3.001994e+02	3.609055e-02	4.439851e-02	1.846860e-05	0.000000e+00	0.000000e+00	0.000000e+00	0.000000e+00	
1.006679e+00	-3.799032e-03	1.289789e-01	1.991709e+00	1.392731e+00	2.780598e+04	1.111323e+04	3.001594e+02	1.170294e-02	5.425320e-02	1.846670e-05	0.000000e+00	0.000000e+00	0.000000e+00	0.000000e+00	
1.006161e+00	-4.848453e-03	1.290067e-01	2.309748e+00	1.394549e+00	2.781413e+04	1.111437e+04	3.001255e+02	2.255469e-02	6.022049e-02	1.846510e-05	0.000000e+00	0.000000e+00	0.000000e+00	0.000000e+00	
1.005900e+00	9.127395e-04	1.289534e-01	-5.340186e-01	1.100026e+00	2.778806e+04	1.111291e+04	3.002100e+02	8.594126e-03	2.729985e-02	1.846910e-05	0.000000e+00	0.000000e+00	0.000000e+00	0.000000e+00	
1.005331e+00	1.693513e-03	1.288723e-01	-3.470617e-01	1.016829e+00	2.776644e+04	1.110478e+04	3.001793e+02	-6.902257e-02	2.400369e-02	1.846765e-05	0.000000e+00	0.000000e+00	0.000000e+00	0.000000e+00	
1.003624e+00	2.017724e-03	1.286352e-01	2.167089e+00	2.360051e+00	2.772488e+04	1.107399e+04	2.998987e+02	-3.632272e-01	7.174755e-02	1.845437e-05	0.000000e+00	0.000000e+00	0.000000e+00	0.000000e+00	
1.004632e+00	2.391213e-03	1.289285e-01	1.792466e+00	1.865445e+00	2.778396e+04	1.110320e+04	3.000057e+02	-8.414000e-02	5.778856e-02	1.845943e-05	0.000000e+00	0.000000e+00	0.000000e+00	0.000000e+00	
1.002179e+00	2.007763e-03	1.304590e-01	7.037002e+00	7.433315e+00	2.823419e+04	1.113305e+04	2.972833e+02	2.010624e-01	2.269957e-01	1.833033e-05	0.000000e+00	0.000000e+00	0.000000e+00	0.000000e+00	
1.002966e+00	2.531329e-03	1.306713e-01	6.611014e+00	6.183745e+00	2.825414e+04	1.117624e+04	2.979516e+02	6.136561e-01	2.001968e-01	1.836208e-05	0.000000e+00	0.000000e+00	0.000000e+00	0.000000e+00	
1.001722e+00	1.565020e-03	1.317063e-01	7.160031e+00	8.816344e+00	2.853097e+04	1.121651e+04	2.966753e+02	9.984157e-01	2.497403e-01	1.830142e-05	0.000000e+00	0.000000e+00	0.000000e+00	0.000000e+00	
1.001244e+00	1.342962e-03	1.311933e-01	7.610297e+00	1.013494e+01	2.845728e+04	1.113803e+04	2.957517e+02	2.486441e-01	2.802168e-01	1.825745e-05	0.000000e+00	0.000000e+00	0.000000e+00	0.000000e+00	
1.000856e+00	-2.069326e-04	1.249963e-01	-3.039794e-01	2.766815e+00	2.693972e+04	1.076349e+04	2.999759e+02	-3.329800e+00	6.413519e-02	1.845802e-05	0.000000e+00	0.000000e+00	0.000000e+00	0.000000e+00	
1.000598e+00	-3.658588e-04	1.262442e-01	-2.795338e+00	4.127568e+00	2.721945e+04	1.084841e+04	2.993540e+02	-2.518451e+00	1.138458e-01	1.842858e-05	0.000000e+00	0.000000e+00	0.000000e+00	0.000000e+00	
1.001155e+00	8.596866e-04	1.326358e-01	6.545790e+00	9.751891e+00	2.873585e+04	1.128633e+04	2.964301e+02	1.665534e+00	2.565576e-01	1.828975e-05	0.000000e+00	0.000000e+00	0.000000e+00	0.000000e+00	
1.001158e+00	3.236325e-04	1.325553e-01	4.242561e+00	7.007678e+00	2.863465e+04	1.135261e+04	2.983519e+02	2.298740e+00	1.784732e-01	1.838108e-05	0.000000e+00	0.000000e+00	0.000000e+00	0.000000e+00	
1.000855e+00	1.460643e-04	1.302781e-01	7.412682e+00	8.695499e+00	2.821141e+04	1.108413e+04	2.963880e+02	-2.663288e-01	2.541287e-01	1.828775e-05	0.000000e+00	0.000000e+00	0.000000e+00	0.000000e+00	
1.000367e+00	-3.418574e-04	1.240859e-01	4.513227e+00	1.614040e+01	2.704157e+04	1.036391e+04	2.909588e+02	-7.147482e+00	3.949796e-01	1.802818e-05	0.000000e+00	0.000000e+00	0.000000e+00	0.000000e+00	
1.000000e+00	0.000000e+00	2.414002e-01	1.925258e+01	1.024210e+02	5.839909e+04	1.436154e+04	2.072496e+02	3.104661e+01	1.495877e+00	1.369398e-05	0.000000e+00	0.000000e+00	0.000000e+00	0.000000e+00	
-9.717577e-04	-7.658696e-02	1.268474e-01	2.338727e+00	-9.134628e+00	2.747550e+04	1.085002e+04	2.979745e+02	-2.503116e+00	2.148117e-01	1.836316e-05	0.000000e+00	0.000000e+00	0.000000e+00	0.000000e+00	
7.917903e-03	-8.547855e-02	1.264283e-01	2.719012e+00	-9.579559e+00	2.739406e+04	1.080076e+04	2.976051e+02	-2.973714e+00	2.277493e-01	1.834562e-05	0.000000e+00	0.000000e+00	0.000000e+00	0.000000e+00	
1.006240e-02	-9.261850e-02	1.262438e-01	3.101063e+00	-9.738669e+00	2.736005e+04	1.077853e+04	2.974267e+02	-3.186084e+00	2.341653e-01	1.833714e-05	0.000000e+00	0.000000e+00	0.000000e+00	0.000000e+00	
1.251909e-02	-9.993400e-02	1.260461e-01	3.511214e+00	-9.893252e+00	2.732372e+04	1.075462e+04	2.972324e+02	-3.414501e+00	2.409763e-01	1.832791e-05	0.000000e+00	0.000000e+00	0.000000e+00	0.000000e+00	
1.529738e-02	-1.073711e-01	1.258306e-01	3.955886e+00	-1.003249e+01	2.728398e+04	1.072874e+04	2.970249e+02	-3.661813e+00	2.480607e-01	1.831805e-05	0.000000e+00	0.000000e+00	0.000000e+00	0.000000e+00	
1.843145e-02	-1.149289e-01	1.256042e-01	4.435802e+00	-1.014620e+01	2.724220e+04	1.070163e+04	2.968082e+02	-3.920839e+00	2.552658e-01	1.830774e-05	0.000000e+00	0.000000e+00	0.000000e+00	0.000000e+00	
2.196161e-02	-1.226134e-01	1.253708e-01	4.943438e+00	-1.022767e+01	2.719904e+04	1.067376e+04	2.965864e+02	-4.187107e+00	2.624495e-01	1.829719e-05	0.000000e+00	0.000000e+00	0.000000e+00	0.000000e+00	
2.590787e-02	-1.303949e-01	1.251350e-01	5.476358e+00	-1.028122e+01	2.715566e+04	1.064539e+04	2.963555e+02	-4.458186e+00	2.697406e-01	1.828620e-05	0.000000e+00	0.000000e+00	0.000000e+00	0.000000e+00	
3.032086e-02	-1.383032e-01	1.248853e-01	6.039630e+00	-1.030468e+01	2.710969e+04	1.061541e+04	2.961117e+02	-4.744623e+00	2.772481e-01	1.827460e-05	0.000000e+00	0.000000e+00	0.000000e+00	0.000000e+00	
3.519676e-02	-1.462396e-01	1.246210e-01	6.637248e+00	-1.028289e+01	2.706081e+04	1.058393e+04	2.958598e+02	-5.045346e+00	2.848128e-01	1.826260e-05	0.000000e+00	0.000000e+00	0.000000e+00	0.000000e+00	
4.055945e-02	-1.541593e-01	1.243569e-01	7.262380e+00	-1.020450e+01	2.701195e+04	1.055249e+04	2.956072e+02	-5.345774e+00	2.922127e-01	1.825056e-05	0.000000e+00	0.000000e+00	0.000000e+00	0.000000e+00	
4.640551e-02	-1.619840e-01	1.240984e-01	7.903721e+00	-1.006324e+01	2.696408e+04	1.052175e+04	2.953602e+02	-5.639441e+00	2.992837e-01	1.823879e-05	0.000000e+00	0.000000e+00	0.000000e+00	0.000000e+00	
5.272092e-02	-1.696379e-01	1.238522e-01	8.547823e+00	-9.851376e+00	2.691831e+04	1.049262e+04	2.951280e+02	-5.917740e+00	3.057829e-01	1.822772e-05	0.000000e+00	0.000000e+00	0.000000e+00	0.000000e+00	