TITLE = "Visualization of the surface solution"
VARIABLES = "x""y""Conservative_1""Conservative_2""Conservative_3""Conservative_4""Pressure""Temperature""C<sub>p</sub>""Mach""<greek>m</greek>""C<sub>f</sub>_x""C<sub>f</sub>_y""h""y<sup>+</sup>"
ZONE NODES= 200, ELEMENTS= 200, DATAPACKING=POINT, ZONETYPE=FELINESEG
3.124498e-03	-7.355345e-02	1.278168e-01	1.110028e+00	-7.621728e+00	2.765066e+04	1.096744e+04	2.989148e+02	-1.381248e+00	1.738604e-01	1.840777e-05	0.000000e+00	0.000000e+00	0.000000e+00	0.000000e+00	
2.537646e-03	-6.919471e-02	1.278527e-01	9.674681e-01	-7.533681e+00	2.765679e+04	1.097247e+04	2.989681e+02	-1.333168e+00	1.713910e-01	1.841029e-05	0.000000e+00	0.000000e+00	0.000000e+00	0.000000e+00	
2.003081e-03	-6.484305e-02	1.279769e-01	8.256130e-01	-7.424763e+00	2.768191e+04	1.098555e+04	2.990340e+02	-1.208225e+00	1.683878e-01	1.841342e-05	0.000000e+00	0.000000e+00	0.000000e+00	0.000000e+00	
9.997621e-01	-1.104656e-03	1.310471e-01	6.955831e+00	2.148207e+00	2.830098e+04	1.123951e+04	2.987792e+02	1.218147e+00	1.603172e-01	1.840134e-05	0.000000e+00	0.000000e+00	0.000000e+00	0.000000e+00	
1.000000e+00	-1.000000e-03	1.135335e-01	-1.620569e+00	6.040936e+00	2.451811e+04	9.738334e+03	2.988072e+02	-1.312433e+01	1.589741e-01	1.840267e-05	0.000000e+00	0.000000e+00	0.000000e+00	0.000000e+00	
4.487486e-03	-8.250216e-02	1.277425e-01	1.283029e+00	-7.821178e+00	2.763835e+04	1.095699e+04	2.988039e+02	-1.481044e+00	1.790446e-01	1.840251e-05	0.000000e+00	0.000000e+00	0.000000e+00	0.000000e+00	
6.075662e-03	-9.152819e-02	1.275635e-01	1.518735e+00	-8.052102e+00	2.760438e+04	1.093648e+04	2.986633e+02	-1.676983e+00	1.854104e-01	1.839584e-05	0.000000e+00	0.000000e+00	0.000000e+00	0.000000e+00	
1.078855e-03	-5.597869e-02	1.280437e-01	6.628214e-01	-7.264288e+00	2.769396e+04	1.099447e+04	2.991209e+02	-1.122940e+00	1.643097e-01	1.841753e-05	0.000000e+00	0.000000e+00	0.000000e+00	0.000000e+00	
9.990485e-01	-1.418323e-03	1.277432e-01	4.338145e+00	2.128720e+00	2.756066e+04	1.098771e+04	2.996399e+02	-1.187605e+00	1.090099e-01	1.844212e-05	0.000000e+00	0.000000e+00	0.000000e+00	0.000000e+00	
1.000000e+00	0.000000e+00	2.410831e-01	1.910518e+01	1.020417e+02	5.831466e+04	1.438495e+04	2.078605e+02	3.127028e+01	1.489902e+00	1.372817e-05	0.000000e+00	0.000000e+00	0.000000e+00	0.000000e+00	
7.917903e-03	-1.007371e-01	1.274197e-01	1.764548e+00	-8.285116e+00	2.757831e+04	1.091869e+04	2.985139e+02	-1.846958e+00	1.919393e-01	1.838876e-05	0.000000e+00	0.000000e+00	0.000000e+00	0.000000e+00	
1.006240e-02	-1.102565e-01	1.272428e-01	2.039398e+00	-8.532071e+00	2.754577e+04	1.089735e+04	2.983446e+02	-2.050860e+00	1.991033e-01	1.838073e-05	0.000000e+00	0.000000e+00	0.000000e+00	0.000000e+00	
1.251909e-02	-1.200029e-01	1.270495e-01	2.342765e+00	-8.786791e+00	2.751034e+04	1.087396e+04	2.981569e+02	-2.274387e+00	2.067753e-01	1.837182e-05	0.000000e+00	0.000000e+00	0.000000e+00	0.000000e+00	
1.529738e-02	-1.299006e-01	1.268343e-01	2.681315e+00	-9.042239e+00	2.747078e+04	1.084805e+04	2.979513e+02	-2.521910e+00	2.148912e-01	1.836206e-05	0.000000e+00	0.000000e+00	0.000000e+00	0.000000e+00	
1.843145e-02	-1.399484e-01	1.266001e-01	3.059062e+00	-9.293426e+00	2.742775e+04	1.081988e+04	2.977273e+02	-2.791078e+00	2.234199e-01	1.835142e-05	0.000000e+00	0.000000e+00	0.000000e+00	0.000000e+00	
2.196161e-02	-1.501510e-01	1.263449e-01	3.475985e+00	-9.534630e+00	2.738079e+04	1.078928e+04	2.974851e+02	-3.083361e+00	2.323067e-01	1.833992e-05	0.000000e+00	0.000000e+00	0.000000e+00	0.000000e+00	
2.590787e-02	-1.604594e-01	1.260710e-01	3.934457e+00	-9.766478e+00	2.733053e+04	1.075634e+04	2.972210e+02	-3.398133e+00	2.416526e-01	1.832737e-05	0.000000e+00	0.000000e+00	0.000000e+00	0.000000e+00	
3.032086e-02	-1.709011e-01	1.257691e-01	4.441869e+00	-9.985817e+00	2.727509e+04	1.072009e+04	2.969306e+02	-3.744451e+00	2.515574e-01	1.831356e-05	0.000000e+00	0.000000e+00	0.000000e+00	0.000000e+00	
3.519676e-02	-1.813426e-01	1.254368e-01	5.004769e+00	-1.017935e+01	2.721390e+04	1.068041e+04	2.966152e+02	-4.123542e+00	2.619166e-01	1.829856e-05	0.000000e+00	0.000000e+00	0.000000e+00	0.000000e+00	
4.055945e-02	-1.917225e-01	1.250816e-01	5.624966e+00	-1.033471e+01	2.714850e+04	1.063803e+04	2.962770e+02	-4.528478e+00	2.726149e-01	1.828247e-05	0.000000e+00	0.000000e+00	0.000000e+00	0.000000e+00	
4.640551e-02	-2.019351e-01	1.247058e-01	6.298525e+00	-1.043978e+01	2.707922e+04	1.059327e+04	2.959195e+02	-4.956113e+00	2.835144e-01	1.826544e-05	0.000000e+00	0.000000e+00	0.000000e+00	0.000000e+00	
5.272092e-02	-2.118782e-01	1.243151e-01	7.018552e+00	-1.047843e+01	2.700701e+04	1.054691e+04	2.955506e+02	-5.399060e+00	2.943667e-01	1.824786e-05	0.000000e+00	0.000000e+00	0.000000e+00	0.000000e+00	
5.950360e-02	-2.214858e-01	1.239201e-01	7.777684e+00	-1.043845e+01	2.693396e+04	1.050010e+04	2.951766e+02	-5.846299e+00	3.049957e-01	1.823003e-05	0.000000e+00	0.000000e+00	0.000000e+00	0.000000e+00	
4.060150e-04	-4.728830e-02	1.281360e-01	4.356109e-01	-7.160629e+00	2.771229e+04	1.100459e+04	2.991804e+02	-1.026305e+00	1.614607e-01	1.842036e-05	0.000000e+00	0.000000e+00	0.000000e+00	0.000000e+00	
6.675311e-02	-2.307043e-01	1.235289e-01	8.563352e+00	-1.030819e+01	2.686149e+04	1.045383e+04	2.948067e+02	-6.288339e+00	3.151772e-01	1.821238e-05	0.000000e+00	0.000000e+00	0.000000e+00	0.000000e+00	
9.978687e-01	-1.933968e-03	1.288607e-01	3.697325e+00	1.643535e+00	2.779456e+04	1.109241e+04	2.998720e+02	-1.872054e-01	9.044944e-02	1.845310e-05	0.000000e+00	0.000000e+00	0.000000e+00	0.000000e+00	
9.999629e-01	-1.365579e-05	1.791184e-01	8.054597e+00	-2.538723e+01	3.914375e+04	1.486541e+04	2.891127e+02	3.586072e+01	4.362338e-01	1.793939e-05	0.000000e+00	0.000000e+00	0.000000e+00	0.000000e+00	
3.518009e-05	-3.919151e-02	1.279342e-01	1.751927e-01	-7.213865e+00	2.766983e+04	1.098653e+04	2.991604e+02	-1.198837e+00	1.626703e-01	1.841941e-05	0.000000e+00	0.000000e+00	0.000000e+00	0.000000e+00	
7.446654e-02	-2.394910e-01	1.231546e-01	9.358299e+00	-1.008313e+01	2.679216e+04	1.040953e+04	2.944495e+02	-6.711571e+00	3.247205e-01	1.819534e-05	0.000000e+00	0.000000e+00	0.000000e+00	0.000000e+00	
9.962132e-01	-2.645261e-03	1.287437e-01	3.237643e+00	1.388321e+00	2.776470e+04	1.108660e+04	2.999872e+02	-2.427220e-01	7.880532e-02	1.845856e-05	0.000000e+00	0.000000e+00	0.000000e+00	0.000000e+00	
9.987533e-01	-4.574945e-04	1.270707e-01	3.498553e+00	1.721393e+00	2.746107e+04	1.096050e+04	3.004797e+02	-1.447548e+00	8.830060e-02	1.848185e-05	0.000000e+00	0.000000e+00	0.000000e+00	0.000000e+00	
6.353361e-05	-3.439859e-02	1.279374e-01	-4.772327e-01	-7.306640e+00	2.767265e+04	1.098525e+04	2.991180e+02	-1.211098e+00	1.650724e-01	1.841740e-05	0.000000e+00	0.000000e+00	0.000000e+00	0.000000e+00	
8.264737e-02	-2.478208e-01	1.228026e-01	1.014835e+01	-9.758425e+00	2.672684e+04	1.036792e+04	2.941131e+02	-7.109182e+00	3.334693e-01	1.817927e-05	0.000000e+00	0.000000e+00	0.000000e+00	0.000000e+00	
9.940823e-01	-3.527494e-03	1.288596e-01	3.163725e+00	1.268414e+00	2.778816e+04	1.109723e+04	3.000048e+02	-1.411506e-01	7.617921e-02	1.845939e-05	0.000000e+00	0.000000e+00	0.000000e+00	0.000000e+00	
9.970564e-01	-1.064043e-03	1.306243e-01	2.218843e+00	7.644159e-01	2.821615e+04	1.127803e+04	3.007736e+02	1.586201e+00	5.167595e-02	1.849574e-05	0.000000e+00	0.000000e+00	0.000000e+00	0.000000e+00	
6.108891e-04	-2.962221e-02	1.281370e-01	-1.198051e+00	-7.040059e+00	2.771320e+04	1.100568e+04	2.992076e+02	-1.015873e+00	1.607185e-01	1.842165e-05	0.000000e+00	0.000000e+00	0.000000e+00	0.000000e+00	
1.772811e-03	-2.423858e-02	1.283253e-01	-1.759366e+00	-6.488969e+00	2.774783e+04	1.102868e+04	2.993931e+02	-7.960787e-01	1.510418e-01	1.843043e-05	0.000000e+00	0.000000e+00	0.000000e+00	0.000000e+00	
9.127835e-02	-2.556462e-01	1.224794e-01	1.091918e+01	-9.330091e+00	2.666671e+04	1.032984e+04	2.938062e+02	-7.472927e+00	3.412597e-01	1.816460e-05	0.000000e+00	0.000000e+00	0.000000e+00	0.000000e+00	
1.003586e-01	-2.629428e-01	1.222002e-01	1.165132e+01	-8.801761e+00	2.661470e+04	1.029690e+04	2.935385e+02	-7.787647e+00	3.479085e-01	1.815181e-05	0.000000e+00	0.000000e+00	0.000000e+00	0.000000e+00	
9.914854e-01	-4.533509e-03	1.288892e-01	3.218313e+00	1.182770e+00	2.779422e+04	1.109945e+04	2.999956e+02	-1.200190e-01	7.661533e-02	1.845896e-05	0.000000e+00	0.000000e+00	0.000000e+00	0.000000e+00	
9.948726e-01	-1.786171e-03	1.295499e-01	2.805706e+00	1.182684e+00	2.798715e+04	1.118055e+04	3.006466e+02	6.548553e-01	6.761496e-02	1.848974e-05	0.000000e+00	0.000000e+00	0.000000e+00	0.000000e+00	
9.884322e-01	-5.600541e-03	1.289187e-01	3.334266e+00	1.081329e+00	2.780116e+04	1.110140e+04	2.999801e+02	-1.013268e-01	7.830782e-02	1.845822e-05	0.000000e+00	0.000000e+00	0.000000e+00	0.000000e+00	
9.849038e-01	-6.670044e-03	1.289442e-01	3.445333e+00	9.532476e-01	2.780785e+04	1.110332e+04	2.999724e+02	-8.301045e-02	7.984672e-02	1.845786e-05	0.000000e+00	0.000000e+00	0.000000e+00	0.000000e+00	
9.809289e-01	-7.682757e-03	1.289771e-01	3.507825e+00	8.137343e-01	2.781630e+04	1.110641e+04	2.999795e+02	-5.346680e-02	8.041047e-02	1.845819e-05	0.000000e+00	0.000000e+00	0.000000e+00	0.000000e+00	
3.645682e-03	-1.842840e-02	1.285843e-01	-2.214131e+00	-5.768812e+00	2.779641e+04	1.105918e+04	2.996162e+02	-5.047565e-01	1.384865e-01	1.844100e-05	0.000000e+00	0.000000e+00	0.000000e+00	0.000000e+00	
1.098763e-01	-2.696818e-01	1.219685e-01	1.233037e+01	-8.175196e+00	2.657136e+04	1.026965e+04	2.933177e+02	-8.048067e+00	3.532884e-01	1.814124e-05	0.000000e+00	0.000000e+00	0.000000e+00	0.000000e+00	
9.922119e-01	-2.530676e-03	1.298016e-01	2.712821e+00	6.111713e-01	2.803981e+04	1.120401e+04	3.006934e+02	8.789996e-01	6.162844e-02	1.849195e-05	0.000000e+00	0.000000e+00	0.000000e+00	0.000000e+00	
9.764884e-01	-8.628852e-03	1.290158e-01	3.505269e+00	6.947825e-01	2.782583e+04	1.111054e+04	3.000008e+02	-1.405600e-02	7.976937e-02	1.845920e-05	0.000000e+00	0.000000e+00	0.000000e+00	0.000000e+00	
9.716110e-01	-9.535937e-03	1.290553e-01	3.447432e+00	6.252471e-01	2.783518e+04	1.111505e+04	3.000308e+02	2.905743e-02	7.818365e-02	1.846062e-05	0.000000e+00	0.000000e+00	0.000000e+00	0.000000e+00	
6.317071e-03	-1.240165e-02	1.288334e-01	-2.542635e+00	-4.921497e+00	2.784241e+04	1.108933e+04	2.998522e+02	-2.166734e-01	1.238626e-01	1.845217e-05	0.000000e+00	0.000000e+00	0.000000e+00	0.000000e+00	
1.198146e-01	-2.758274e-01	1.217948e-01	1.294102e+01	-7.454845e+00	2.653871e+04	1.024922e+04	2.931518e+02	-8.243215e+00	3.572500e-01	1.813331e-05	0.000000e+00	0.000000e+00	0.000000e+00	0.000000e+00	
1.301865e-01	-2.813639e-01	1.216929e-01	1.345920e+01	-6.647687e+00	2.651920e+04	1.023733e+04	2.930571e+02	-8.356782e+00	3.594438e-01	1.812877e-05	0.000000e+00	0.000000e+00	0.000000e+00	0.000000e+00	
9.662775e-01	-1.048551e-02	1.290886e-01	3.362893e+00	6.160713e-01	2.784293e+04	1.111906e+04	3.000617e+02	6.739492e-02	7.626742e-02	1.846208e-05	0.000000e+00	0.000000e+00	0.000000e+00	0.000000e+00	
1.409639e-01	-2.862564e-01	1.216720e-01	1.386959e+01	-5.776935e+00	2.651478e+04	1.023485e+04	2.930362e+02	-8.380497e+00	3.598344e-01	1.812777e-05	0.000000e+00	0.000000e+00	0.000000e+00	0.000000e+00	
1.521370e-01	-2.904872e-01	1.217322e-01	1.415313e+01	-4.860135e+00	2.652510e+04	1.024213e+04	2.930995e+02	-8.310973e+00	3.581758e-01	1.813081e-05	0.000000e+00	0.000000e+00	0.000000e+00	0.000000e+00	
1.637051e-01	-2.940470e-01	1.218791e-01	1.431015e+01	-3.932021e+00	2.655173e+04	1.025928e+04	2.932366e+02	-8.147098e+00	3.547009e-01	1.813736e-05	0.000000e+00	0.000000e+00	0.000000e+00	0.000000e+00	
1.756580e-01	-2.969306e-01	1.220951e-01	1.433847e+01	-3.017141e+00	2.659097e+04	1.028470e+04	2.934432e+02	-7.904206e+00	3.494635e-01	1.814725e-05	0.000000e+00	0.000000e+00	0.000000e+00	0.000000e+00	
9.605069e-01	-1.157385e-02	1.291118e-01	3.282758e+00	6.586827e-01	2.784840e+04	1.112200e+04	3.000870e+02	9.543879e-02	7.467435e-02	1.846328e-05	0.000000e+00	0.000000e+00	0.000000e+00	0.000000e+00	
1.879741e-01	-2.991371e-01	1.223719e-01	1.425518e+01	-2.145541e+00	2.664170e+04	1.031704e+04	2.936998e+02	-7.595283e+00	3.428899e-01	1.815952e-05	0.000000e+00	0.000000e+00	0.000000e+00	0.000000e+00	
2.006410e-01	-3.006741e-01	1.226860e-01	1.407360e+01	-1.331809e+00	2.669917e+04	1.035389e+04	2.939945e+02	-7.243153e+00	3.352185e-01	1.817360e-05	0.000000e+00	0.000000e+00	0.000000e+00	0.000000e+00	
2.136354e-01	-3.015513e-01	1.230248e-01	1.381741e+01	-5.849039e-01	2.676129e+04	1.039358e+04	2.943087e+02	-6.863956e+00	3.268682e-01	1.818861e-05	0.000000e+00	0.000000e+00	0.000000e+00	0.000000e+00	
2.269565e-01	-3.017729e-01	1.233722e-01	1.349419e+01	9.769734e-02	2.682466e+04	1.043466e+04	2.946396e+02	-6.471540e+00	3.178678e-01	1.820441e-05	0.000000e+00	0.000000e+00	0.000000e+00	0.000000e+00	
2.405831e-01	-3.013428e-01	1.237321e-01	1.312069e+01	7.098960e-01	2.689043e+04	1.047709e+04	2.949774e+02	-6.066102e+00	3.084367e-01	1.822053e-05	0.000000e+00	0.000000e+00	0.000000e+00	0.000000e+00	
2.545034e-01	-3.002684e-01	1.240912e-01	1.270419e+01	1.251999e+00	2.695585e+04	1.051969e+04	2.953194e+02	-5.659143e+00	2.986138e-01	1.823684e-05	0.000000e+00	0.000000e+00	0.000000e+00	0.000000e+00	
2.687049e-01	-2.985594e-01	1.244495e-01	1.226165e+01	1.722093e+00	2.702120e+04	1.056209e+04	2.956562e+02	-5.253978e+00	2.886388e-01	1.825290e-05	0.000000e+00	0.000000e+00	0.000000e+00	0.000000e+00	
2.831543e-01	-2.962322e-01	1.247961e-01	1.179905e+01	2.124320e+00	2.708420e+04	1.060334e+04	2.959864e+02	-4.859941e+00	2.785406e-01	1.826863e-05	0.000000e+00	0.000000e+00	0.000000e+00	0.000000e+00	
2.978479e-01	-2.933018e-01	1.251331e-01	1.132865e+01	2.461021e+00	2.714549e+04	1.064339e+04	2.963045e+02	-4.477211e+00	2.684735e-01	1.828377e-05	0.000000e+00	0.000000e+00	0.000000e+00	0.000000e+00	
3.127718e-01	-2.897873e-01	1.254537e-01	1.085533e+01	2.736386e+00	2.720365e+04	1.068166e+04	2.966098e+02	-4.111589e+00	2.584611e-01	1.829831e-05	0.000000e+00	0.000000e+00	0.000000e+00	0.000000e+00	
3.278929e-01	-2.857195e-01	1.257594e-01	1.039002e+01	2.953768e+00	2.725913e+04	1.071809e+04	2.968982e+02	-3.763511e+00	2.486567e-01	1.831202e-05	0.000000e+00	0.000000e+00	0.000000e+00	0.000000e+00	
3.431989e-01	-2.811291e-01	1.260443e-01	9.936999e+00	3.119691e+00	2.731071e+04	1.075216e+04	2.971687e+02	-3.438043e+00	2.391081e-01	1.832488e-05	0.000000e+00	0.000000e+00	0.000000e+00	0.000000e+00	
3.586875e-01	-2.760452e-01	1.263101e-01	9.502023e+00	3.240203e+00	2.735885e+04	1.078395e+04	2.974199e+02	-3.134309e+00	2.298958e-01	1.833682e-05	0.000000e+00	0.000000e+00	0.000000e+00	0.000000e+00	
3.743255e-01	-2.705092e-01	1.265546e-01	9.087840e+00	3.321994e+00	2.740301e+04	1.081324e+04	2.976518e+02	-2.854430e+00	2.210618e-01	1.834784e-05	0.000000e+00	0.000000e+00	0.000000e+00	0.000000e+00	
3.900895e-01	-2.645624e-01	1.267789e-01	8.697244e+00	3.370699e+00	2.744351e+04	1.084015e+04	2.978644e+02	-2.597370e+00	2.126491e-01	1.835794e-05	0.000000e+00	0.000000e+00	0.000000e+00	0.000000e+00	
9.542990e-01	-1.289182e-02	1.291241e-01	3.228915e+00	7.334280e-01	2.785158e+04	1.112365e+04	3.001031e+02	1.112333e-01	7.383961e-02	1.846404e-05	0.000000e+00	0.000000e+00	0.000000e+00	0.000000e+00	
9.476630e-01	-1.449388e-02	1.291265e-01	3.210793e+00	8.193325e-01	2.785278e+04	1.112410e+04	3.001096e+02	1.155803e-01	7.389357e-02	1.846435e-05	0.000000e+00	0.000000e+00	0.000000e+00	0.000000e+00	
4.059766e-01	-2.582398e-01	1.269829e-01	8.331283e+00	3.393212e+00	2.748027e+04	1.086465e+04	2.980581e+02	-2.363268e+00	2.046890e-01	1.836713e-05	0.000000e+00	0.000000e+00	0.000000e+00	0.000000e+00	
4.219629e-01	-2.515784e-01	1.271673e-01	7.988130e+00	3.397626e+00	2.751344e+04	1.088686e+04	2.982343e+02	-2.151067e+00	1.971742e-01	1.837549e-05	0.000000e+00	0.000000e+00	0.000000e+00	0.000000e+00	
9.406073e-01	-1.638864e-02	1.291222e-01	3.226544e+00	8.994149e-01	2.785267e+04	1.112369e+04	3.001084e+02	1.116048e-01	7.469619e-02	1.846429e-05	0.000000e+00	0.000000e+00	0.000000e+00	0.000000e+00	
4.380248e-01	-2.446070e-01	1.273355e-01	7.664889e+00	3.388122e+00	2.754362e+04	1.090714e+04	2.983952e+02	-1.957335e+00	1.900495e-01	1.838313e-05	0.000000e+00	0.000000e+00	0.000000e+00	0.000000e+00	
4.541381e-01	-2.373541e-01	1.274902e-01	7.357972e+00	3.366460e+00	2.757133e+04	1.092582e+04	2.985436e+02	-1.778845e+00	1.832319e-01	1.839017e-05	0.000000e+00	0.000000e+00	0.000000e+00	0.000000e+00	
9.331391e-01	-1.854636e-02	1.291145e-01	3.266829e+00	9.637799e-01	2.785191e+04	1.112280e+04	3.001023e+02	1.030697e-01	7.596089e-02	1.846400e-05	0.000000e+00	0.000000e+00	0.000000e+00	0.000000e+00	
9.252459e-01	-2.092616e-02	1.291061e-01	3.319276e+00	1.010304e+00	2.785105e+04	1.112177e+04	3.000942e+02	9.329342e-02	7.738528e-02	1.846362e-05	0.000000e+00	0.000000e+00	0.000000e+00	0.000000e+00	
4.702995e-01	-2.298395e-01	1.276334e-01	7.066895e+00	3.333814e+00	2.759698e+04	1.094312e+04	2.986806e+02	-1.613580e+00	1.767034e-01	1.839667e-05	0.000000e+00	0.000000e+00	0.000000e+00	0.000000e+00	
4.864747e-01	-2.220971e-01	1.277657e-01	6.787958e+00	3.291826e+00	2.762058e+04	1.095914e+04	2.988084e+02	-1.460484e+00	1.703901e-01	1.840273e-05	0.000000e+00	0.000000e+00	0.000000e+00	0.000000e+00	
5.026498e-01	-2.141516e-01	1.278892e-01	6.522434e+00	3.241035e+00	2.764262e+04	1.097409e+04	2.989270e+02	-1.317677e+00	1.643096e-01	1.840835e-05	0.000000e+00	0.000000e+00	0.000000e+00	0.000000e+00	
5.188115e-01	-2.060312e-01	1.280044e-01	6.268281e+00	3.179618e+00	2.766313e+04	1.098806e+04	2.990382e+02	-1.184173e+00	1.583916e-01	1.841362e-05	0.000000e+00	0.000000e+00	0.000000e+00	0.000000e+00	
9.169520e-01	-2.347938e-02	1.290990e-01	3.372102e+00	1.041768e+00	2.785044e+04	1.112088e+04	3.000865e+02	8.475144e-02	7.872277e-02	1.846325e-05	0.000000e+00	0.000000e+00	0.000000e+00	0.000000e+00	
9.082432e-01	-2.618549e-02	1.290938e-01	3.418367e+00	1.064766e+00	2.785012e+04	1.112019e+04	3.000801e+02	7.815492e-02	7.986449e-02	1.846295e-05	0.000000e+00	0.000000e+00	0.000000e+00	0.000000e+00	
8.991326e-01	-2.903535e-02	1.290910e-01	3.454035e+00	1.085399e+00	2.785024e+04	1.111979e+04	3.000757e+02	7.433606e-02	8.076354e-02	1.846274e-05	0.000000e+00	0.000000e+00	0.000000e+00	0.000000e+00	
8.896241e-01	-3.204121e-02	1.290893e-01	3.480072e+00	1.110473e+00	2.785050e+04	1.111953e+04	3.000726e+02	7.184152e-02	8.148759e-02	1.846260e-05	0.000000e+00	0.000000e+00	0.000000e+00	0.000000e+00	
5.349280e-01	-1.977848e-01	1.281125e-01	6.030123e+00	3.108623e+00	2.768242e+04	1.100111e+04	2.991407e+02	-1.059494e+00	1.527296e-01	1.841848e-05	0.000000e+00	0.000000e+00	0.000000e+00	0.000000e+00	
5.509981e-01	-1.894465e-01	1.282115e-01	5.806009e+00	3.029327e+00	2.770002e+04	1.101311e+04	2.992357e+02	-9.448999e-01	1.472917e-01	1.842297e-05	0.000000e+00	0.000000e+00	0.000000e+00	0.000000e+00	
8.797148e-01	-3.523542e-02	1.290874e-01	3.499554e+00	1.144101e+00	2.785066e+04	1.111926e+04	3.000700e+02	6.932037e-02	8.213332e-02	1.846247e-05	0.000000e+00	0.000000e+00	0.000000e+00	0.000000e+00	
8.694220e-01	-3.864801e-02	1.290842e-01	3.517307e+00	1.186599e+00	2.785056e+04	1.111887e+04	3.000668e+02	6.561512e-02	8.281046e-02	1.846232e-05	0.000000e+00	0.000000e+00	0.000000e+00	0.000000e+00	
8.587630e-01	-4.230552e-02	1.290794e-01	3.537670e+00	1.237636e+00	2.785013e+04	1.111829e+04	3.000622e+02	5.998241e-02	8.361384e-02	1.846210e-05	0.000000e+00	0.000000e+00	0.000000e+00	0.000000e+00	
5.669903e-01	-1.810656e-01	1.283026e-01	5.598437e+00	2.944605e+00	2.771623e+04	1.102412e+04	2.993222e+02	-8.397015e-01	1.421504e-01	1.842707e-05	0.000000e+00	0.000000e+00	0.000000e+00	0.000000e+00	
5.829036e-01	-1.726746e-01	1.283855e-01	5.404410e+00	2.855151e+00	2.773093e+04	1.103417e+04	2.994017e+02	-7.436548e-01	1.372489e-01	1.843084e-05	0.000000e+00	0.000000e+00	0.000000e+00	0.000000e+00	
5.987068e-01	-1.643208e-01	1.284613e-01	5.226969e+00	2.763593e+00	2.774439e+04	1.104333e+04	2.994733e+02	-6.561659e-01	1.326714e-01	1.843423e-05	0.000000e+00	0.000000e+00	0.000000e+00	0.000000e+00	
6.143888e-01	-1.560382e-01	1.285295e-01	5.061588e+00	2.670797e+00	2.775644e+04	1.105161e+04	2.995387e+02	-5.770523e-01	1.283353e-01	1.843733e-05	0.000000e+00	0.000000e+00	0.000000e+00	0.000000e+00	
6.299284e-01	-1.478571e-01	1.285913e-01	4.909809e+00	2.579716e+00	2.776734e+04	1.105909e+04	2.995975e+02	-5.055547e-01	1.243002e-01	1.844011e-05	0.000000e+00	0.000000e+00	0.000000e+00	0.000000e+00	
6.453142e-01	-1.397992e-01	1.286474e-01	4.766485e+00	2.489039e+00	2.777718e+04	1.106592e+04	2.996517e+02	-4.403139e-01	1.204484e-01	1.844268e-05	0.000000e+00	0.000000e+00	0.000000e+00	0.000000e+00	
6.605349e-01	-1.318846e-01	1.286989e-01	4.634269e+00	2.400378e+00	2.778622e+04	1.107216e+04	2.997007e+02	-3.807052e-01	1.168482e-01	1.844500e-05	0.000000e+00	0.000000e+00	0.000000e+00	0.000000e+00	
6.755695e-01	-1.241374e-01	1.287461e-01	4.508913e+00	2.312113e+00	2.779444e+04	1.107789e+04	2.997460e+02	-3.259746e-01	1.133980e-01	1.844714e-05	0.000000e+00	0.000000e+00	0.000000e+00	0.000000e+00	
8.477169e-01	-4.624206e-02	1.290725e-01	3.561865e+00	1.294926e+00	2.784928e+04	1.111746e+04	3.000559e+02	5.206354e-02	8.455704e-02	1.846181e-05	0.000000e+00	0.000000e+00	0.000000e+00	0.000000e+00	
6.903975e-01	-1.165800e-01	1.287891e-01	4.393014e+00	2.226171e+00	2.780193e+04	1.108311e+04	2.997869e+02	-2.761079e-01	1.101694e-01	1.844908e-05	0.000000e+00	0.000000e+00	0.000000e+00	0.000000e+00	
7.050083e-01	-1.092283e-01	1.288290e-01	4.283356e+00	2.140260e+00	2.780886e+04	1.108795e+04	2.998250e+02	-2.298564e-01	1.070743e-01	1.845088e-05	0.000000e+00	0.000000e+00	0.000000e+00	0.000000e+00	
8.363209e-01	-5.046509e-02	1.290632e-01	3.592850e+00	1.358132e+00	2.784799e+04	1.111633e+04	3.000472e+02	4.134248e-02	8.570291e-02	1.846139e-05	0.000000e+00	0.000000e+00	0.000000e+00	0.000000e+00	
8.245836e-01	-5.498625e-02	1.290519e-01	3.629235e+00	1.425218e+00	2.784632e+04	1.111497e+04	3.000365e+02	2.828118e-02	8.700787e-02	1.846089e-05	0.000000e+00	0.000000e+00	0.000000e+00	0.000000e+00	
8.124942e-01	-5.982084e-02	1.290379e-01	3.673016e+00	1.496448e+00	2.784413e+04	1.111327e+04	3.000233e+02	1.206017e-02	8.851693e-02	1.846027e-05	0.000000e+00	0.000000e+00	0.000000e+00	0.000000e+00	
8.000812e-01	-6.496574e-02	1.290215e-01	3.722958e+00	1.570579e+00	2.784149e+04	1.111129e+04	3.000079e+02	-6.872945e-03	9.019402e-02	1.845954e-05	0.000000e+00	0.000000e+00	0.000000e+00	0.000000e+00	
7.193922e-01	-1.020984e-01	1.288649e-01	4.181529e+00	2.056380e+00	2.781505e+04	1.109232e+04	2.998596e+02	-1.881044e-01	1.041660e-01	1.845252e-05	0.000000e+00	0.000000e+00	0.000000e+00	0.000000e+00	
7.335207e-01	-9.521677e-02	1.288990e-01	4.087336e+00	1.971853e+00	2.782095e+04	1.109643e+04	2.998913e+02	-1.488735e-01	1.014134e-01	1.845402e-05	0.000000e+00	0.000000e+00	0.000000e+00	0.000000e+00	
7.473954e-01	-8.859337e-02	1.289284e-01	3.999778e+00	1.889240e+00	2.782594e+04	1.110002e+04	2.999201e+02	-1.145013e-01	9.882500e-02	1.845538e-05	0.000000e+00	0.000000e+00	0.000000e+00	0.000000e+00	
7.610077e-01	-8.224156e-02	1.289564e-01	3.919894e+00	1.806840e+00	2.783072e+04	1.110339e+04	2.999460e+02	-8.230924e-02	9.640417e-02	1.845661e-05	0.000000e+00	0.000000e+00	0.000000e+00	0.000000e+00	
7.873537e-01	-7.042209e-02	1.290023e-01	3.780803e+00	1.647377e+00	2.783835e+04	1.110897e+04	2.999899e+02	-2.901541e-02	9.207274e-02	1.845868e-05	0.000000e+00	0.000000e+00	0.000000e+00	0.000000e+00	
7.743298e-01	-7.618157e-02	1.289803e-01	3.846479e+00	1.726332e+00	2.783468e+04	1.110631e+04	2.999692e+02	-5.444971e-02	9.414600e-02	1.845771e-05	0.000000e+00	0.000000e+00	0.000000e+00	0.000000e+00	
9.890844e-01	-3.167139e-03	1.297785e-01	2.779649e+00	4.364978e-01	2.803526e+04	1.120190e+04	3.006903e+02	8.588855e-01	6.236896e-02	1.849181e-05	0.000000e+00	0.000000e+00	0.000000e+00	0.000000e+00	
9.835138e-03	-6.459877e-03	1.290954e-01	-2.738446e+00	-3.966495e+00	2.789131e+04	1.112053e+04	3.000856e+02	8.143446e-02	1.075134e-01	1.846321e-05	0.000000e+00	0.000000e+00	0.000000e+00	0.000000e+00	
9.854708e-01	-3.558153e-03	1.297687e-01	2.831123e+00	1.515541e-01	2.803321e+04	1.120089e+04	3.006859e+02	8.492459e-01	6.284992e-02	1.849160e-05	0.000000e+00	0.000000e+00	0.000000e+00	0.000000e+00	
1.424138e-02	-9.302963e-04	1.293687e-01	-2.730088e+00	-2.932901e+00	2.794302e+04	1.115239e+04	3.003093e+02	3.857847e-01	8.915515e-02	1.847379e-05	0.000000e+00	0.000000e+00	0.000000e+00	0.000000e+00	
9.814000e-01	-3.596202e-03	1.297227e-01	2.994139e+00	-1.028004e-01	2.802407e+04	1.119579e+04	3.006554e+02	8.004809e-01	6.643981e-02	1.849016e-05	0.000000e+00	0.000000e+00	0.000000e+00	0.000000e+00	
1.948044e-02	3.900189e-03	1.296030e-01	-2.441652e+00	-1.962107e+00	2.798732e+04	1.117979e+04	3.005031e+02	6.475770e-01	6.954726e-02	1.848296e-05	0.000000e+00	0.000000e+00	0.000000e+00	0.000000e+00	
9.768522e-01	-3.267405e-03	1.296549e-01	3.253147e+00	-3.160035e-01	2.801107e+04	1.118795e+04	3.006021e+02	7.255517e-01	7.252862e-02	1.848764e-05	0.000000e+00	0.000000e+00	0.000000e+00	0.000000e+00	
2.546083e-02	8.074203e-03	1.297452e-01	-1.930682e+00	-1.205034e+00	2.801351e+04	1.119742e+04	3.006470e+02	8.160518e-01	5.046393e-02	1.848976e-05	0.000000e+00	0.000000e+00	0.000000e+00	0.000000e+00	
3.203755e-02	1.168885e-02	1.298371e-01	-1.345775e+00	-6.636298e-01	2.803064e+04	1.120879e+04	3.007393e+02	9.246630e-01	3.324258e-02	1.849412e-05	0.000000e+00	0.000000e+00	0.000000e+00	0.000000e+00	
9.718555e-01	-2.680069e-03	1.295547e-01	3.604980e+00	-4.240918e-01	2.799198e+04	1.117645e+04	3.005254e+02	6.157319e-01	8.062039e-02	1.848401e-05	0.000000e+00	0.000000e+00	0.000000e+00	0.000000e+00	
3.916171e-02	1.474960e-02	1.298912e-01	-7.614917e-01	-2.925199e-01	2.804106e+04	1.121540e+04	3.007913e+02	9.878171e-01	1.806310e-02	1.849658e-05	0.000000e+00	0.000000e+00	0.000000e+00	0.000000e+00	
9.663888e-01	-2.045445e-03	1.294422e-01	4.002656e+00	-3.713026e-01	2.797077e+04	1.116334e+04	3.004338e+02	4.904595e-01	8.937372e-02	1.847968e-05	0.000000e+00	0.000000e+00	0.000000e+00	0.000000e+00	
9.604691e-01	-1.626400e-03	1.293477e-01	4.361698e+00	-1.386533e-01	2.795334e+04	1.115189e+04	3.003447e+02	3.810552e-01	9.710850e-02	1.847547e-05	0.000000e+00	0.000000e+00	0.000000e+00	0.000000e+00	
4.680418e-02	1.725357e-02	1.299110e-01	-2.093250e-01	-6.293548e-02	2.804507e+04	1.121795e+04	3.008141e+02	1.012241e+00	4.839153e-03	1.849766e-05	0.000000e+00	0.000000e+00	0.000000e+00	0.000000e+00	
5.490741e-02	1.921417e-02	1.299101e-01	2.880288e-01	5.673696e-02	2.804531e+04	1.121799e+04	3.008172e+02	1.012605e+00	6.499192e-03	1.849780e-05	0.000000e+00	0.000000e+00	0.000000e+00	0.000000e+00	
9.540933e-01	-1.649238e-03	1.293014e-01	4.585128e+00	2.155717e-01	2.794533e+04	1.114554e+04	3.002813e+02	3.203956e-01	1.021915e-01	1.847247e-05	0.000000e+00	0.000000e+00	0.000000e+00	0.000000e+00	
6.343257e-02	2.065655e-02	1.298967e-01	7.202362e-01	9.793363e-02	2.804327e+04	1.121649e+04	3.008079e+02	9.982896e-01	1.609390e-02	1.849737e-05	0.000000e+00	0.000000e+00	0.000000e+00	0.000000e+00	
9.472667e-01	-2.238909e-03	1.293048e-01	4.627615e+00	5.751134e-01	2.794658e+04	1.114500e+04	3.002587e+02	3.151793e-01	1.038184e-01	1.847140e-05	0.000000e+00	0.000000e+00	0.000000e+00	0.000000e+00	
9.399951e-01	-3.397143e-03	1.293400e-01	4.522205e+00	8.412736e-01	2.795332e+04	1.114861e+04	3.002742e+02	3.497103e-01	1.023758e-01	1.847214e-05	0.000000e+00	0.000000e+00	0.000000e+00	0.000000e+00	
7.237286e-02	2.161758e-02	1.298771e-01	1.086936e+00	8.841357e-02	2.804008e+04	1.121420e+04	3.007919e+02	9.763646e-01	2.415025e-02	1.849661e-05	0.000000e+00	0.000000e+00	0.000000e+00	0.000000e+00	
9.322861e-01	-5.028490e-03	1.293867e-01	4.343883e+00	9.823383e-01	2.796174e+04	1.115404e+04	3.003120e+02	4.015444e-01	9.907946e-02	1.847392e-05	0.000000e+00	0.000000e+00	0.000000e+00	0.000000e+00	
9.241278e-01	-6.993433e-03	1.294302e-01	4.158914e+00	1.021064e+00	2.796930e+04	1.115938e+04	3.003550e+02	4.526383e-01	9.523300e-02	1.847595e-05	0.000000e+00	0.000000e+00	0.000000e+00	0.000000e+00	
8.169832e-02	2.214993e-02	1.298558e-01	1.394953e+00	4.941967e-02	2.803661e+04	1.121164e+04	3.007726e+02	9.519341e-01	3.091738e-02	1.849570e-05	0.000000e+00	0.000000e+00	0.000000e+00	0.000000e+00	
9.140383e-02	2.228968e-02	1.298333e-01	1.652971e+00	-6.867206e-03	2.803289e+04	1.120895e+04	3.007524e+02	9.261876e-01	3.662093e-02	1.849474e-05	0.000000e+00	0.000000e+00	0.000000e+00	0.000000e+00	
1.014763e-01	2.206196e-02	1.298119e-01	1.868467e+00	-7.180321e-02	2.802937e+04	1.120636e+04	3.007325e+02	9.014646e-01	4.143357e-02	1.849380e-05	0.000000e+00	0.000000e+00	0.000000e+00	0.000000e+00	
9.155475e-01	-9.147674e-03	1.294649e-01	4.003450e+00	9.998667e-01	2.797519e+04	1.116377e+04	3.003926e+02	4.945727e-01	9.173349e-02	1.847773e-05	0.000000e+00	0.000000e+00	0.000000e+00	0.000000e+00	
9.065337e-01	-1.139586e-02	1.294901e-01	3.886164e+00	9.548718e-01	2.797938e+04	1.116702e+04	3.004214e+02	5.255809e-01	8.894050e-02	1.847909e-05	0.000000e+00	0.000000e+00	0.000000e+00	0.000000e+00	
1.118924e-01	2.149415e-02	1.297921e-01	2.048754e+00	-1.411154e-01	2.802611e+04	1.120395e+04	3.007137e+02	8.784105e-01	4.551390e-02	1.849291e-05	0.000000e+00	0.000000e+00	0.000000e+00	0.000000e+00	
1.226615e-01	2.059463e-02	1.297736e-01	2.199059e+00	-2.124403e-01	2.802307e+04	1.120171e+04	3.006964e+02	8.570043e-01	4.897278e-02	1.849209e-05	0.000000e+00	0.000000e+00	0.000000e+00	0.000000e+00	
8.971042e-01	-1.368491e-02	1.295086e-01	3.800903e+00	9.084847e-01	2.798241e+04	1.116938e+04	3.004422e+02	5.481560e-01	8.684065e-02	1.848008e-05	0.000000e+00	0.000000e+00	0.000000e+00	0.000000e+00	
8.872672e-01	-1.600323e-02	1.295229e-01	3.736212e+00	8.699439e-01	2.798476e+04	1.117118e+04	3.004575e+02	5.653645e-01	8.523330e-02	1.848080e-05	0.000000e+00	0.000000e+00	0.000000e+00	0.000000e+00	
8.770203e-01	-1.836122e-02	1.295356e-01	3.681682e+00	8.404143e-01	2.798689e+04	1.117274e+04	3.004698e+02	5.802292e-01	8.389533e-02	1.848138e-05	0.000000e+00	0.000000e+00	0.000000e+00	0.000000e+00	
8.663811e-01	-2.076910e-02	1.295480e-01	3.629852e+00	8.167288e-01	2.798900e+04	1.117423e+04	3.004812e+02	5.944743e-01	8.264659e-02	1.848192e-05	0.000000e+00	0.000000e+00	0.000000e+00	0.000000e+00	