TITLE = "Visualization of the volumetric solution"
VARIABLES = "x""y""Conservative_1""Conservative_2""Conservative_3""Conservative_4""Pressure""Temperature""C<sub>p</sub>""Mach""<greek>m</greek>""C<sub>f</sub>_x""C<sub>f</sub>_y""h""y<sup>+</sup>"
ZONE NODES= 5233, ELEMENTS= 10216, DATAPACKING=POINT, ZONETYPE=FEQUADRILATERAL
1.002197e+00	-1.314012e-03	1.291019e-01	7.302157e-01	2.017727e+00	2.782092e+04	1.112124e+04	3.000895e+02	8.817751e-02	4.786097e-02	1.846340e-05	0.000000e+00	0.000000e+00	0.000000e+00	0.000000e+00	
1.002616e+00	-9.310946e-04	1.290588e-01	5.349953e-01	1.663642e+00	2.781024e+04	1.111936e+04	3.001393e+02	7.029332e-02	3.898804e-02	1.846575e-05	0.000000e+00	0.000000e+00	0.000000e+00	0.000000e+00	
1.002285e+00	-1.626041e-03	1.289473e-01	9.034831e-01	1.981919e+00	2.778784e+04	1.110778e+04	3.000856e+02	-4.039669e-02	4.864089e-02	1.846321e-05	0.000000e+00	0.000000e+00	0.000000e+00	0.000000e+00	
1.001799e+00	-1.551516e-03	1.289108e-01	8.575448e-01	2.557534e+00	2.778239e+04	1.110167e+04	3.000054e+02	-9.880834e-02	6.026350e-02	1.845942e-05	0.000000e+00	0.000000e+00	0.000000e+00	0.000000e+00	
1.002458e+00	-2.019994e-03	1.289546e-01	1.100881e+00	1.905666e+00	2.779014e+04	1.110854e+04	3.000895e+02	-3.308254e-02	4.914382e-02	1.846340e-05	0.000000e+00	0.000000e+00	0.000000e+00	0.000000e+00	
1.002666e+00	-2.517927e-03	1.289606e-01	1.397821e+00	1.837622e+00	2.779301e+04	1.110894e+04	3.000861e+02	-2.934644e-02	5.155440e-02	1.846324e-05	0.000000e+00	0.000000e+00	0.000000e+00	0.000000e+00	
1.002756e+00	-1.479602e-03	1.289001e-01	9.217323e-01	1.689831e+00	2.777677e+04	1.110496e+04	3.001194e+02	-6.735203e-02	4.299837e-02	1.846481e-05	0.000000e+00	0.000000e+00	0.000000e+00	0.000000e+00	
1.003179e+00	-1.070209e-03	1.289600e-01	7.718566e-01	1.532451e+00	2.778873e+04	1.111093e+04	3.001411e+02	-1.032515e-02	3.831022e-02	1.846584e-05	0.000000e+00	0.000000e+00	0.000000e+00	0.000000e+00	
1.003058e+00	-2.027637e-03	1.289622e-01	1.189788e+00	1.674161e+00	2.779145e+04	1.111004e+04	3.001121e+02	-1.882675e-02	4.585866e-02	1.846447e-05	0.000000e+00	0.000000e+00	0.000000e+00	0.000000e+00	
1.003135e+00	-6.723653e-04	1.289291e-01	4.026446e-01	1.495173e+00	2.778111e+04	1.110872e+04	3.001537e+02	-3.137796e-02	3.457981e-02	1.846643e-05	0.000000e+00	0.000000e+00	0.000000e+00	0.000000e+00	
1.002161e+00	-9.709985e-04	1.288515e-01	5.124183e-01	1.971059e+00	2.776701e+04	1.110037e+04	3.001084e+02	-1.112221e-01	4.551173e-02	1.846429e-05	0.000000e+00	0.000000e+00	0.000000e+00	0.000000e+00	
1.001764e+00	-1.172158e-03	1.287884e-01	6.222798e-01	2.617060e+00	2.775599e+04	1.109116e+04	3.000065e+02	-1.991817e-01	6.015414e-02	1.845947e-05	0.000000e+00	0.000000e+00	0.000000e+00	0.000000e+00	
1.002650e+00	-3.741845e-04	1.290673e-01	-3.534809e-01	1.393383e+00	2.781010e+04	1.112084e+04	3.001592e+02	8.437990e-02	3.206808e-02	1.846669e-05	0.000000e+00	0.000000e+00	0.000000e+00	0.000000e+00	
1.002150e+00	-6.312792e-04	1.290433e-01	-9.258452e-02	1.828136e+00	2.780793e+04	1.111798e+04	3.001377e+02	5.705154e-02	4.084323e-02	1.846568e-05	0.000000e+00	0.000000e+00	0.000000e+00	0.000000e+00	
1.001394e+00	-1.374104e-03	1.290328e-01	8.796481e-01	3.710118e+00	2.781589e+04	1.110382e+04	2.997801e+02	-7.822461e-02	8.513604e-02	1.844875e-05	0.000000e+00	0.000000e+00	0.000000e+00	0.000000e+00	
1.001931e+00	-1.971461e-03	1.288898e-01	1.084623e+00	2.343824e+00	2.777786e+04	1.110080e+04	3.000309e+02	-1.071194e-01	5.770453e-02	1.846062e-05	0.000000e+00	0.000000e+00	0.000000e+00	0.000000e+00	
1.001490e+00	-1.793101e-03	1.289773e-01	1.081825e+00	3.061118e+00	2.780041e+04	1.110382e+04	2.999089e+02	-7.825230e-02	7.250697e-02	1.845485e-05	0.000000e+00	0.000000e+00	0.000000e+00	0.000000e+00	
1.002099e+00	-2.408423e-03	1.288526e-01	1.392844e+00	2.132444e+00	2.777066e+04	1.109820e+04	3.000472e+02	-1.319558e-01	5.692412e-02	1.846140e-05	0.000000e+00	0.000000e+00	0.000000e+00	0.000000e+00	
1.002273e+00	-2.899006e-03	1.289089e-01	1.688278e+00	1.971180e+00	2.778413e+04	1.110320e+04	3.000515e+02	-8.412810e-02	5.797838e-02	1.846160e-05	0.000000e+00	0.000000e+00	0.000000e+00	0.000000e+00	
1.002889e+00	-3.040098e-03	1.289510e-01	1.723563e+00	1.770151e+00	2.779307e+04	1.110776e+04	3.000767e+02	-4.058171e-02	5.517234e-02	1.846279e-05	0.000000e+00	0.000000e+00	0.000000e+00	0.000000e+00	
1.003310e+00	-2.587461e-03	1.289240e-01	1.492315e+00	1.681682e+00	2.778530e+04	1.110628e+04	3.000994e+02	-5.475127e-02	5.021668e-02	1.846387e-05	0.000000e+00	0.000000e+00	0.000000e+00	0.000000e+00	
1.003363e+00	-1.572812e-03	1.290189e-01	1.023574e+00	1.526844e+00	2.780213e+04	1.111562e+04	3.001308e+02	3.447434e-02	4.102361e-02	1.846535e-05	0.000000e+00	0.000000e+00	0.000000e+00	0.000000e+00	
1.003717e+00	-7.999981e-04	1.290516e-01	5.744965e-01	1.436470e+00	2.780719e+04	1.111917e+04	3.001507e+02	6.841475e-02	3.451709e-02	1.846629e-05	0.000000e+00	0.000000e+00	0.000000e+00	0.000000e+00	
1.003713e+00	-2.091376e-03	1.289590e-01	1.311208e+00	1.566671e+00	2.779107e+04	1.110995e+04	3.001172e+02	-1.961233e-02	4.561586e-02	1.846471e-05	0.000000e+00	0.000000e+00	0.000000e+00	0.000000e+00	
1.003197e+00	-1.501493e-04	1.288599e-01	-2.219543e-01	1.281896e+00	2.776366e+04	1.110284e+04	3.001558e+02	-8.760855e-02	2.906880e-02	1.846653e-05	0.000000e+00	0.000000e+00	0.000000e+00	0.000000e+00	
1.002817e+00	2.017360e-04	1.291422e-01	-9.545012e-01	9.797726e-01	2.782230e+04	1.112602e+04	3.001249e+02	1.338843e-01	3.049804e-02	1.846507e-05	0.000000e+00	0.000000e+00	0.000000e+00	0.000000e+00	
1.001750e+00	-8.253970e-04	1.294362e-01	-2.118372e-01	2.453910e+00	2.789539e+04	1.114878e+04	3.000559e+02	3.513605e-01	5.479808e-02	1.846181e-05	0.000000e+00	0.000000e+00	0.000000e+00	0.000000e+00	
1.001385e+00	-1.012560e-03	1.292538e-01	-1.614090e-02	3.849567e+00	2.786430e+04	1.112279e+04	2.997787e+02	1.029951e-01	8.580710e-02	1.844869e-05	0.000000e+00	0.000000e+00	0.000000e+00	0.000000e+00	
1.002365e+00	5.579941e-04	1.284914e-01	-3.919781e-01	1.001593e+00	2.767932e+04	1.106993e+04	3.001243e+02	-4.020205e-01	2.410251e-02	1.846504e-05	0.000000e+00	0.000000e+00	0.000000e+00	0.000000e+00	
1.002280e+00	6.971643e-05	1.287470e-01	-1.062726e+00	1.004662e+00	2.773952e+04	1.109249e+04	3.001389e+02	-1.864946e-01	3.270630e-02	1.846573e-05	0.000000e+00	0.000000e+00	0.000000e+00	0.000000e+00	
1.002187e+00	-3.228442e-04	1.286092e-01	-8.580184e-01	1.354956e+00	2.771311e+04	1.108124e+04	3.001559e+02	-2.939235e-01	3.590458e-02	1.846654e-05	0.000000e+00	0.000000e+00	0.000000e+00	0.000000e+00	
1.001752e+00	-4.606662e-04	1.293859e-01	-1.398580e+00	1.818940e+00	2.788417e+04	1.114553e+04	3.000849e+02	3.202719e-01	5.106502e-02	1.846318e-05	0.000000e+00	0.000000e+00	0.000000e+00	0.000000e+00	
1.001040e+00	-1.174304e-03	1.283817e-01	7.995370e-01	5.262131e+00	2.768946e+04	1.103165e+04	2.993421e+02	-7.677507e-01	1.195314e-01	1.842801e-05	0.000000e+00	0.000000e+00	0.000000e+00	0.000000e+00	
1.003559e+00	-3.233651e-03	1.289722e-01	1.773010e+00	1.663106e+00	2.779802e+04	1.111004e+04	3.000889e+02	-1.875874e-02	5.427563e-02	1.846337e-05	0.000000e+00	0.000000e+00	0.000000e+00	0.000000e+00	
1.001092e+00	-1.605336e-03	1.290630e-01	1.560016e+00	4.565270e+00	2.783181e+04	1.109666e+04	2.995164e+02	-1.466661e-01	1.077425e-01	1.843627e-05	0.000000e+00	0.000000e+00	0.000000e+00	0.000000e+00	
1.000725e+00	-1.410557e-03	1.279174e-01	2.475651e+00	6.536024e+00	2.761169e+04	1.096830e+04	2.987033e+02	-1.372985e+00	1.576983e-01	1.839774e-05	0.000000e+00	0.000000e+00	0.000000e+00	0.000000e+00	
1.001580e+00	-2.260682e-03	1.290890e-01	1.350880e+00	2.681354e+00	2.782401e+04	1.111564e+04	2.999684e+02	3.467267e-02	6.698784e-02	1.845767e-05	0.000000e+00	0.000000e+00	0.000000e+00	0.000000e+00	
1.001138e+00	-2.079074e-03	1.281709e-01	1.775721e+00	3.430076e+00	2.763235e+04	1.102966e+04	2.997804e+02	-7.867503e-01	8.682091e-02	1.844877e-05	0.000000e+00	0.000000e+00	0.000000e+00	0.000000e+00	
1.001712e+00	-2.779567e-03	1.289080e-01	1.761236e+00	2.284136e+00	2.778546e+04	1.110128e+04	3.000015e+02	-1.025100e-01	6.443935e-02	1.845923e-05	0.000000e+00	0.000000e+00	0.000000e+00	0.000000e+00	
1.001911e+00	-3.282830e-03	1.289354e-01	1.979680e+00	2.010577e+00	2.779205e+04	1.110447e+04	3.000241e+02	-7.199369e-02	6.302312e-02	1.846030e-05	0.000000e+00	0.000000e+00	0.000000e+00	0.000000e+00	
1.002498e+00	-3.467684e-03	1.289694e-01	1.979278e+00	1.805279e+00	2.779899e+04	1.110847e+04	3.000528e+02	-3.384278e-02	5.981693e-02	1.846166e-05	0.000000e+00	0.000000e+00	0.000000e+00	0.000000e+00	
1.003363e+00	-3.653786e-03	1.289660e-01	2.028305e+00	1.655984e+00	2.779873e+04	1.110886e+04	3.000715e+02	-3.007626e-02	5.846673e-02	1.846254e-05	0.000000e+00	0.000000e+00	0.000000e+00	0.000000e+00	
1.004026e+00	-2.707228e-03	1.289464e-01	1.597945e+00	1.585377e+00	2.779085e+04	1.110848e+04	3.001067e+02	-3.368458e-02	5.026584e-02	1.846421e-05	0.000000e+00	0.000000e+00	0.000000e+00	0.000000e+00	
1.003856e+00	-5.927648e-05	1.290358e-01	-1.733858e-01	1.326657e+00	2.780089e+04	1.111758e+04	3.001445e+02	5.326148e-02	2.985466e-02	1.846600e-05	0.000000e+00	0.000000e+00	0.000000e+00	0.000000e+00	
1.004046e+00	-1.483580e-03	1.288830e-01	1.075140e+00	1.478122e+00	2.777281e+04	1.110394e+04	3.001318e+02	-7.706202e-02	4.083411e-02	1.846540e-05	0.000000e+00	0.000000e+00	0.000000e+00	0.000000e+00	
1.004440e+00	-6.965443e-04	1.289446e-01	5.927104e-01	1.425485e+00	2.778380e+04	1.110982e+04	3.001473e+02	-2.087582e-02	3.447239e-02	1.846613e-05	0.000000e+00	0.000000e+00	0.000000e+00	0.000000e+00	
1.004466e+00	-2.095848e-03	1.289966e-01	1.379921e+00	1.516524e+00	2.779954e+04	1.111330e+04	3.001201e+02	1.233422e-02	4.576760e-02	1.846484e-05	0.000000e+00	0.000000e+00	0.000000e+00	0.000000e+00	
1.003395e+00	4.182066e-04	1.289285e-01	-7.802673e-01	1.119678e+00	2.777468e+04	1.110698e+04	3.001080e+02	-4.798942e-02	3.047973e-02	1.846427e-05	0.000000e+00	0.000000e+00	0.000000e+00	0.000000e+00	
1.002913e+00	7.679531e-04	1.290920e-01	-4.994119e-01	1.041722e+00	2.780608e+04	1.112036e+04	3.000889e+02	7.985105e-02	2.576926e-02	1.846337e-05	0.000000e+00	0.000000e+00	0.000000e+00	0.000000e+00	
1.004079e+00	6.255807e-04	1.289580e-01	-8.323527e-01	1.146727e+00	2.778038e+04	1.110904e+04	3.000947e+02	-2.838352e-02	3.163976e-02	1.846364e-05	0.000000e+00	0.000000e+00	0.000000e+00	0.000000e+00	
1.002439e+00	1.066255e-03	1.293389e-01	1.514116e+00	2.396461e+00	2.786661e+04	1.113422e+04	2.998892e+02	2.122141e-01	6.313204e-02	1.845392e-05	0.000000e+00	0.000000e+00	0.000000e+00	0.000000e+00	
1.001390e+00	-6.608389e-04	1.279466e-01	-1.198290e+00	2.690481e+00	2.757765e+04	1.101750e+04	2.999747e+02	-9.029462e-01	6.629861e-02	1.845797e-05	0.000000e+00	0.000000e+00	0.000000e+00	0.000000e+00	
1.001054e+00	-8.572008e-04	1.286334e-01	-1.775628e+00	4.804182e+00	2.774237e+04	1.105616e+04	2.994199e+02	-5.335838e-01	1.147839e-01	1.843170e-05	0.000000e+00	0.000000e+00	0.000000e+00	0.000000e+00	
1.001950e+00	8.069180e-04	1.296762e-01	2.140330e+00	3.362200e+00	2.795175e+04	1.115620e+04	2.996996e+02	4.222128e-01	8.856185e-02	1.844495e-05	0.000000e+00	0.000000e+00	0.000000e+00	0.000000e+00	
1.001899e+00	3.504013e-04	1.291158e-01	-2.253787e-01	1.539815e+00	2.781765e+04	1.112331e+04	3.001131e+02	1.079664e-01	3.470571e-02	1.846451e-05	0.000000e+00	0.000000e+00	0.000000e+00	0.000000e+00	
1.001822e+00	-6.133828e-05	1.296472e-01	-1.664609e+00	1.235534e+00	2.793751e+04	1.116838e+04	3.000938e+02	5.385565e-01	4.604322e-02	1.846360e-05	0.000000e+00	0.000000e+00	0.000000e+00	0.000000e+00	
1.001458e+00	-2.711125e-04	1.280767e-01	-1.840046e+00	1.840538e+00	2.760288e+04	1.103057e+04	3.000255e+02	-7.780361e-01	5.851989e-02	1.846037e-05	0.000000e+00	0.000000e+00	0.000000e+00	0.000000e+00	
1.000704e+00	-1.003301e-03	1.295831e-01	-1.428924e+00	7.455446e+00	2.797676e+04	1.110176e+04	2.984516e+02	-9.786946e-02	1.691504e-01	1.838580e-05	0.000000e+00	0.000000e+00	0.000000e+00	0.000000e+00	
1.000348e+00	-1.279890e-03	1.282961e-01	2.553511e+00	9.887737e+00	2.775079e+04	1.093774e+04	2.969919e+02	-1.664954e+00	2.303998e-01	1.831648e-05	0.000000e+00	0.000000e+00	0.000000e+00	0.000000e+00	
3.124498e-03	-5.789565e-02	1.252710e-01	2.930622e+00	-1.093087e+01	2.717623e+04	1.066602e+04	2.966076e+02	-4.261054e+00	2.616601e-01	1.829820e-05	0.000000e+00	0.000000e+00	0.000000e+00	0.000000e+00	
2.537646e-03	-5.552114e-02	1.252621e-01	2.584059e+00	-1.101087e+01	2.717452e+04	1.066557e+04	2.966162e+02	-4.265328e+00	2.615157e-01	1.829861e-05	0.000000e+00	0.000000e+00	0.000000e+00	0.000000e+00	
2.003081e-03	-5.313995e-02	1.254846e-01	2.221618e+00	-1.097935e+01	2.722028e+04	1.068812e+04	2.967160e+02	-4.049940e+00	2.585117e-01	1.830336e-05	0.000000e+00	0.000000e+00	0.000000e+00	0.000000e+00	
1.004405e+00	-3.707257e-03	1.289649e-01	1.989135e+00	1.566554e+00	2.779838e+04	1.110941e+04	3.000887e+02	-2.482116e-02	5.653391e-02	1.846336e-05	0.000000e+00	0.000000e+00	0.000000e+00	0.000000e+00	
1.000727e+00	-1.901603e-03	1.293765e-01	2.456448e+00	4.811666e+00	2.790665e+04	1.111754e+04	2.993531e+02	5.286270e-02	1.203908e-01	1.842854e-05	0.000000e+00	0.000000e+00	0.000000e+00	0.000000e+00	
1.000386e+00	-1.647578e-03	1.273091e-01	5.001663e+00	6.005507e+00	2.749519e+04	1.090212e+04	2.983196e+02	-2.005334e+00	1.773006e-01	1.837954e-05	0.000000e+00	0.000000e+00	0.000000e+00	0.000000e+00	
1.001187e+00	-2.547498e-03	1.288466e-01	1.981331e+00	2.884190e+00	2.777655e+04	1.109161e+04	2.998832e+02	-1.948379e-01	7.822899e-02	1.845363e-05	0.000000e+00	0.000000e+00	0.000000e+00	0.000000e+00	
1.000745e+00	-2.361306e-03	1.292111e-01	2.191699e+00	3.468439e+00	2.785963e+04	1.111780e+04	2.997431e+02	5.532536e-02	9.148825e-02	1.844700e-05	0.000000e+00	0.000000e+00	0.000000e+00	0.000000e+00	
1.001327e+00	-3.194975e-03	1.288865e-01	2.157485e+00	2.338938e+00	2.778410e+04	1.109793e+04	2.999610e+02	-1.345346e-01	7.110774e-02	1.845732e-05	0.000000e+00	0.000000e+00	0.000000e+00	0.000000e+00	
1.001593e+00	-3.732544e-03	1.288472e-01	2.225378e+00	2.040225e+00	2.777525e+04	1.109595e+04	2.999992e+02	-1.533981e-01	6.748239e-02	1.845912e-05	0.000000e+00	0.000000e+00	0.000000e+00	0.000000e+00	
1.000045e+00	-1.490731e-03	1.294348e-01	6.540400e+00	5.657520e+00	2.796512e+04	1.107049e+04	2.979520e+02	-3.966177e-01	1.930778e-01	1.836209e-05	0.000000e+00	0.000000e+00	0.000000e+00	0.000000e+00	
9.997621e-01	-1.104660e-03	1.309842e-01	7.339027e+00	2.324701e+00	2.827911e+04	1.122115e+04	2.984345e+02	1.042794e+00	1.697106e-01	1.838499e-05	0.000000e+00	0.000000e+00	0.000000e+00	0.000000e+00	
1.002215e+00	-3.831491e-03	1.289278e-01	2.214166e+00	1.860853e+00	2.779211e+04	1.110387e+04	3.000253e+02	-7.777764e-02	6.460505e-02	1.846036e-05	0.000000e+00	0.000000e+00	0.000000e+00	0.000000e+00	
1.002869e+00	-4.164345e-03	1.289281e-01	2.265512e+00	1.696172e+00	2.779253e+04	1.110459e+04	3.000442e+02	-7.087912e-02	6.321423e-02	1.846125e-05	0.000000e+00	0.000000e+00	0.000000e+00	0.000000e+00	
1.003893e+00	-4.452533e-03	1.289650e-01	2.351775e+00	1.574932e+00	2.780180e+04	1.110830e+04	3.000586e+02	-3.545209e-02	6.320141e-02	1.846193e-05	0.000000e+00	0.000000e+00	0.000000e+00	0.000000e+00	
1.004964e+00	-2.934980e-03	1.289741e-01	1.696711e+00	1.510206e+00	2.779748e+04	1.111099e+04	3.001100e+02	-9.721719e-03	5.071240e-02	1.846437e-05	0.000000e+00	0.000000e+00	0.000000e+00	0.000000e+00	
1.004626e+00	8.277910e-05	1.289218e-01	-1.713500e-01	1.313404e+00	2.777589e+04	1.110764e+04	3.001411e+02	-4.176478e-02	2.958184e-02	1.846584e-05	0.000000e+00	0.000000e+00	0.000000e+00	0.000000e+00	
1.004846e+00	-1.393150e-03	1.290196e-01	1.072536e+00	1.471256e+00	2.780228e+04	1.111577e+04	3.001333e+02	3.596708e-02	4.063266e-02	1.846547e-05	0.000000e+00	0.000000e+00	0.000000e+00	0.000000e+00	
1.005262e+00	-5.690824e-04	1.289580e-01	5.397878e-01	1.411701e+00	2.778643e+04	1.111103e+04	3.001485e+02	-9.358213e-03	3.374492e-02	1.846619e-05	0.000000e+00	0.000000e+00	0.000000e+00	0.000000e+00	
1.005373e+00	-2.118761e-03	1.289470e-01	1.418095e+00	1.462061e+00	2.778890e+04	1.110913e+04	3.001227e+02	-2.752781e-02	4.548226e-02	1.846497e-05	0.000000e+00	0.000000e+00	0.000000e+00	0.000000e+00	
1.005561e+00	-3.749934e-03	1.289624e-01	2.010945e+00	1.478914e+00	2.779810e+04	1.110958e+04	3.000993e+02	-2.320857e-02	5.573623e-02	1.846386e-05	0.000000e+00	0.000000e+00	0.000000e+00	0.000000e+00	
1.004898e+00	9.149493e-04	1.288856e-01	-7.137758e-01	1.084921e+00	2.776438e+04	1.110314e+04	3.001038e+02	-8.476181e-02	2.901401e-02	1.846407e-05	0.000000e+00	0.000000e+00	0.000000e+00	0.000000e+00	
1.003516e+00	1.060556e-03	1.286721e-01	-4.570129e-01	1.237230e+00	2.771455e+04	1.108312e+04	3.000600e+02	-2.760136e-01	2.951804e-02	1.846200e-05	0.000000e+00	0.000000e+00	0.000000e+00	0.000000e+00	
1.002966e+00	1.405447e-03	1.290776e-01	9.731898e-01	1.909395e+00	2.780307e+04	1.111411e+04	2.999537e+02	2.010513e-02	4.782072e-02	1.845697e-05	0.000000e+00	0.000000e+00	0.000000e+00	0.000000e+00	
1.004284e+00	1.534791e-03	1.291334e-01	-3.415310e-01	1.233349e+00	2.781372e+04	1.112295e+04	3.000626e+02	1.045804e-01	2.853882e-02	1.846212e-05	0.000000e+00	0.000000e+00	0.000000e+00	0.000000e+00	
1.002684e+00	1.718596e-03	1.289885e-01	4.106521e+00	4.138178e+00	2.782153e+04	1.107591e+04	2.991294e+02	-3.448450e-01	1.303568e-01	1.841794e-05	0.000000e+00	0.000000e+00	0.000000e+00	0.000000e+00	
1.002006e+00	1.340599e-03	1.298927e-01	4.960639e+00	5.783863e+00	2.804748e+04	1.112959e+04	2.984866e+02	1.680350e-01	1.693738e-01	1.838747e-05	0.000000e+00	0.000000e+00	0.000000e+00	0.000000e+00	
1.001124e+00	-4.576031e-04	1.319810e-01	-3.966245e+00	2.916167e+00	2.846212e+04	1.134812e+04	2.995319e+02	2.255898e+00	1.075080e-01	1.843701e-05	0.000000e+00	0.000000e+00	0.000000e+00	0.000000e+00	
1.000805e+00	-6.197280e-04	1.254312e-01	-3.914751e+00	5.300717e+00	2.707076e+04	1.075907e+04	2.988129e+02	-3.372073e+00	1.516021e-01	1.840294e-05	0.000000e+00	0.000000e+00	0.000000e+00	0.000000e+00	
1.001569e+00	1.052357e-03	1.294814e-01	5.948325e+00	7.486066e+00	2.799966e+04	1.105865e+04	2.975260e+02	-5.097957e-01	2.135555e-01	1.834186e-05	0.000000e+00	0.000000e+00	0.000000e+00	0.000000e+00	
1.001513e+00	5.983329e-04	1.290923e-01	3.884685e+00	4.990693e+00	2.785509e+04	1.108007e+04	2.990008e+02	-3.051547e-01	1.413294e-01	1.841185e-05	0.000000e+00	0.000000e+00	0.000000e+00	0.000000e+00	
1.001489e+00	1.441352e-04	1.279278e-01	2.504844e-01	1.978472e+00	2.756452e+04	1.101959e+04	3.000758e+02	-8.829627e-01	4.489042e-02	1.846275e-05	0.000000e+00	0.000000e+00	0.000000e+00	0.000000e+00	
1.001153e+00	-4.913971e-05	1.287356e-01	-4.259209e-01	2.670733e+00	2.774137e+04	1.108518e+04	2.999678e+02	-2.562728e-01	6.050613e-02	1.845764e-05	0.000000e+00	0.000000e+00	0.000000e+00	0.000000e+00	
1.000463e+00	-6.930654e-04	1.335020e-01	-9.842880e+00	6.069923e+00	2.889915e+04	1.135932e+04	2.964114e+02	2.362909e+00	2.509713e-01	1.828886e-05	0.000000e+00	0.000000e+00	0.000000e+00	0.000000e+00	
1.000000e+00	-1.000000e-03	1.132452e-01	-1.455593e+00	6.144844e+00	2.444105e+04	9.705991e+03	2.985729e+02	-1.343333e+01	1.609800e-01	1.839156e-05	0.000000e+00	0.000000e+00	0.000000e+00	0.000000e+00	
4.487486e-03	-6.274912e-02	1.252783e-01	3.312449e+00	-1.093815e+01	2.718039e+04	1.066364e+04	2.965241e+02	-4.283806e+00	2.642668e-01	1.829423e-05	0.000000e+00	0.000000e+00	0.000000e+00	0.000000e+00	
6.075662e-03	-6.762920e-02	1.250616e-01	3.815485e+00	-1.095532e+01	2.713803e+04	1.063999e+04	2.963791e+02	-4.509700e+00	2.687748e-01	1.828733e-05	0.000000e+00	0.000000e+00	0.000000e+00	0.000000e+00	
-1.733863e-04	-5.719982e-02	1.255770e-01	2.733902e+00	-1.075741e+01	2.723907e+04	1.069942e+04	2.968113e+02	-3.941934e+00	2.559171e-01	1.830789e-05	0.000000e+00	0.000000e+00	0.000000e+00	0.000000e+00	
-3.661922e-04	-6.133569e-02	1.255883e-01	3.126699e+00	-1.066024e+01	2.724188e+04	1.070021e+04	2.968065e+02	-3.934368e+00	2.561253e-01	1.830766e-05	0.000000e+00	0.000000e+00	0.000000e+00	0.000000e+00	
-6.159323e-04	-5.457106e-02	1.256278e-01	2.411780e+00	-1.076330e+01	2.724850e+04	1.070571e+04	2.968656e+02	-3.881865e+00	2.541959e-01	1.831047e-05	0.000000e+00	0.000000e+00	0.000000e+00	0.000000e+00	
-2.943739e-03	-5.616522e-02	1.258100e-01	2.563269e+00	-1.059279e+01	2.728577e+04	1.072549e+04	2.969833e+02	-3.692898e+00	2.507477e-01	1.831607e-05	0.000000e+00	0.000000e+00	0.000000e+00	0.000000e+00	
1.078855e-03	-4.823907e-02	1.255223e-01	1.777512e+00	-1.090082e+01	2.722523e+04	1.069573e+04	2.968382e+02	-3.977229e+00	2.547581e-01	1.830917e-05	0.000000e+00	0.000000e+00	0.000000e+00	0.000000e+00	
-2.274610e-03	-5.066529e-02	1.258119e-01	2.016122e+00	-1.063222e+01	2.728383e+04	1.072737e+04	2.970311e+02	-3.674907e+00	2.489564e-01	1.831834e-05	0.000000e+00	0.000000e+00	0.000000e+00	0.000000e+00	
1.005005e+00	-4.628656e-03	1.289864e-01	2.336730e+00	1.478350e+00	2.780659e+04	1.111078e+04	3.000758e+02	-1.171689e-02	6.173109e-02	1.846275e-05	0.000000e+00	0.000000e+00	0.000000e+00	0.000000e+00	
1.001519e+00	-4.196381e-03	1.289271e-01	2.473605e+00	1.947204e+00	2.779469e+04	1.110250e+04	2.999901e+02	-9.081787e-02	7.032300e-02	1.845870e-05	0.000000e+00	0.000000e+00	0.000000e+00	0.000000e+00	
1.000298e+00	-2.226564e-03	1.280358e-01	3.396699e+00	3.948940e+00	2.761750e+04	1.100462e+04	2.994152e+02	-1.025996e+00	1.172792e-01	1.843148e-05	0.000000e+00	0.000000e+00	0.000000e+00	0.000000e+00	
1.000754e+00	-3.046895e-03	1.289672e-01	2.531165e+00	2.854079e+00	2.780684e+04	1.110017e+04	2.998338e+02	-1.131193e-01	8.521212e-02	1.845130e-05	0.000000e+00	0.000000e+00	0.000000e+00	0.000000e+00	
1.000995e+00	-3.673193e-03	1.288576e-01	2.427398e+00	2.213871e+00	2.778032e+04	1.109538e+04	2.999593e+02	-1.588884e-01	7.343292e-02	1.845724e-05	0.000000e+00	0.000000e+00	0.000000e+00	0.000000e+00	
9.996092e-01	-1.963831e-03	1.271568e-01	4.451136e+00	2.731171e+00	2.742778e+04	1.092822e+04	2.993919e+02	-1.755953e+00	1.183993e-01	1.843038e-05	0.000000e+00	0.000000e+00	0.000000e+00	0.000000e+00	
9.990485e-01	-1.418557e-03	1.277295e-01	4.711035e+00	2.300804e+00	2.755077e+04	1.097727e+04	2.993873e+02	-1.287329e+00	1.183345e-01	1.843016e-05	0.000000e+00	0.000000e+00	0.000000e+00	0.000000e+00	
1.002238e+00	-4.535112e-03	1.289903e-01	2.461423e+00	1.738299e+00	2.780790e+04	1.110908e+04	3.000209e+02	-2.795945e-02	6.727725e-02	1.846015e-05	0.000000e+00	0.000000e+00	0.000000e+00	0.000000e+00	
1.002909e+00	-4.945591e-03	1.289764e-01	2.496796e+00	1.635799e+00	2.780553e+04	1.110840e+04	3.000347e+02	-3.448699e-02	6.664841e-02	1.846081e-05	0.000000e+00	0.000000e+00	0.000000e+00	0.000000e+00	
1.001699e+00	-5.110757e-03	1.288422e-01	2.673533e+00	1.779085e+00	2.777827e+04	1.109530e+04	2.999931e+02	-1.596217e-01	7.178410e-02	1.845884e-05	0.000000e+00	0.000000e+00	0.000000e+00	0.000000e+00	
1.004666e+00	-5.700201e-03	1.289914e-01	2.620501e+00	1.457962e+00	2.781062e+04	1.111030e+04	3.000514e+02	-1.627977e-02	6.694796e-02	1.846159e-05	0.000000e+00	0.000000e+00	0.000000e+00	0.000000e+00	
1.003633e+00	-5.478060e-03	1.289868e-01	2.637930e+00	1.545465e+00	2.780976e+04	1.110941e+04	3.000378e+02	-2.480137e-02	6.825856e-02	1.846095e-05	0.000000e+00	0.000000e+00	0.000000e+00	0.000000e+00	
1.006029e+00	-2.826087e-03	1.289756e-01	1.689316e+00	1.443091e+00	2.779756e+04	1.111137e+04	3.001168e+02	-6.083968e-03	4.960200e-02	1.846469e-05	0.000000e+00	0.000000e+00	0.000000e+00	0.000000e+00	
1.005501e+00	2.566267e-04	1.290296e-01	-1.296445e-01	1.291200e+00	2.779902e+04	1.111700e+04	3.001432e+02	4.768616e-02	2.895804e-02	1.846594e-05	0.000000e+00	0.000000e+00	0.000000e+00	0.000000e+00	
1.005749e+00	-1.282322e-03	1.289604e-01	1.029581e+00	1.430507e+00	2.778914e+04	1.111084e+04	3.001378e+02	-1.118504e-02	3.935157e-02	1.846568e-05	0.000000e+00	0.000000e+00	0.000000e+00	0.000000e+00	
1.006191e+00	-4.156686e-04	1.289838e-01	5.311991e-01	1.379216e+00	2.779177e+04	1.111332e+04	3.001505e+02	1.256121e-02	3.299237e-02	1.846628e-05	0.000000e+00	0.000000e+00	0.000000e+00	0.000000e+00	
1.006336e+00	-1.877753e-03	1.289993e-01	1.351372e+00	1.414023e+00	2.779951e+04	1.111387e+04	3.001293e+02	1.781909e-02	4.365794e-02	1.846528e-05	0.000000e+00	0.000000e+00	0.000000e+00	0.000000e+00	
1.006717e+00	-3.703222e-03	1.289792e-01	1.964987e+00	1.401634e+00	2.780106e+04	1.111139e+04	3.001091e+02	-5.878827e-03	5.388500e-02	1.846433e-05	0.000000e+00	0.000000e+00	0.000000e+00	0.000000e+00	
1.006216e+00	-4.763703e-03	1.290032e-01	2.305470e+00	1.400576e+00	2.781002e+04	1.111273e+04	3.000893e+02	6.863638e-03	6.021378e-02	1.846339e-05	0.000000e+00	0.000000e+00	0.000000e+00	0.000000e+00	
1.005854e+00	9.972298e-04	1.289674e-01	-5.794054e-01	1.087520e+00	2.778218e+04	1.111052e+04	3.001129e+02	-1.423164e-02	2.751208e-02	1.846451e-05	0.000000e+00	0.000000e+00	0.000000e+00	0.000000e+00	
1.005271e+00	1.766477e-03	1.288841e-01	-2.535030e-01	1.054092e+00	2.775990e+04	1.110214e+04	3.000803e+02	-9.432084e-02	2.422262e-02	1.846296e-05	0.000000e+00	0.000000e+00	0.000000e+00	0.000000e+00	
1.003564e+00	2.058687e-03	1.286918e-01	2.485358e+00	2.572198e+00	2.773185e+04	1.107286e+04	2.997363e+02	-3.740307e-01	8.007933e-02	1.844668e-05	0.000000e+00	0.000000e+00	0.000000e+00	0.000000e+00	
1.004561e+00	2.449748e-03	1.289684e-01	2.076359e+00	2.052371e+00	2.778642e+04	1.110135e+04	2.998630e+02	-1.018364e-01	6.521019e-02	1.845268e-05	0.000000e+00	0.000000e+00	0.000000e+00	0.000000e+00	
1.002127e+00	2.022717e-03	1.305562e-01	7.238088e+00	7.733075e+00	2.825913e+04	1.113179e+04	2.970281e+02	1.889819e-01	2.348186e-01	1.831820e-05	0.000000e+00	0.000000e+00	0.000000e+00	0.000000e+00	
1.002899e+00	2.558382e-03	1.308277e-01	6.840390e+00	6.504836e+00	2.829116e+04	1.118025e+04	2.977022e+02	6.519877e-01	2.085973e-01	1.835023e-05	0.000000e+00	0.000000e+00	0.000000e+00	0.000000e+00	
1.001681e+00	1.574096e-03	1.318538e-01	7.324006e+00	9.067508e+00	2.856656e+04	1.122055e+04	2.964502e+02	1.037002e+00	2.561119e-01	1.829071e-05	0.000000e+00	0.000000e+00	0.000000e+00	0.000000e+00	
1.001210e+00	1.345314e-03	1.312864e-01	7.688693e+00	1.027620e+01	2.847870e+04	1.114055e+04	2.956088e+02	2.727194e-01	2.836227e-01	1.825064e-05	0.000000e+00	0.000000e+00	0.000000e+00	0.000000e+00	
1.000848e+00	-1.998275e-04	1.250174e-01	-1.894686e-01	2.781133e+00	2.693893e+04	1.076314e+04	2.999156e+02	-3.333134e+00	6.422565e-02	1.845517e-05	0.000000e+00	0.000000e+00	0.000000e+00	0.000000e+00	
1.000594e+00	-3.604016e-04	1.262957e-01	-2.661935e+00	4.137889e+00	2.722468e+04	1.085154e+04	2.993180e+02	-2.488598e+00	1.123248e-01	1.842687e-05	0.000000e+00	0.000000e+00	0.000000e+00	0.000000e+00	
1.001130e+00	8.637812e-04	1.326792e-01	6.694907e+00	9.962048e+00	2.874794e+04	1.128201e+04	2.962197e+02	1.624264e+00	2.621919e-01	1.827974e-05	0.000000e+00	0.000000e+00	0.000000e+00	0.000000e+00	
1.001142e+00	3.311050e-04	1.326677e-01	4.466525e+00	7.218650e+00	2.865880e+04	1.135489e+04	2.981591e+02	2.320524e+00	1.848440e-01	1.837193e-05	0.000000e+00	0.000000e+00	0.000000e+00	0.000000e+00	
1.000844e+00	1.508292e-04	1.303679e-01	7.613660e+00	8.907587e+00	2.823355e+04	1.108276e+04	2.961474e+02	-2.793959e-01	2.605448e-01	1.827629e-05	0.000000e+00	0.000000e+00	0.000000e+00	0.000000e+00	
1.000365e+00	-3.381204e-04	1.242989e-01	4.627769e+00	1.630392e+01	2.709011e+04	1.037388e+04	2.907396e+02	-7.052222e+00	3.988868e-01	1.801765e-05	0.000000e+00	0.000000e+00	0.000000e+00	0.000000e+00	
1.000000e+00	0.000000e+00	2.419152e-01	1.934846e+01	1.028283e+02	5.854039e+04	1.436504e+04	2.068587e+02	3.108003e+01	1.500095e+00	1.367208e-05	0.000000e+00	0.000000e+00	0.000000e+00	0.000000e+00	
5.480994e-04	-6.669422e-02	1.255123e-01	3.600080e+00	-1.063158e+01	2.722828e+04	1.069055e+04	2.967182e+02	-4.026701e+00	2.589780e-01	1.830346e-05	0.000000e+00	0.000000e+00	0.000000e+00	0.000000e+00	
7.917903e-03	-7.260471e-02	1.249527e-01	4.304624e+00	-1.093925e+01	2.711834e+04	1.062614e+04	2.962513e+02	-4.642101e+00	2.726621e-01	1.828124e-05	0.000000e+00	0.000000e+00	0.000000e+00	0.000000e+00	
1.006240e-02	-7.775395e-02	1.248118e-01	4.808648e+00	-1.090857e+01	2.709217e+04	1.060913e+04	2.961110e+02	-4.804544e+00	2.768827e-01	1.827456e-05	0.000000e+00	0.000000e+00	0.000000e+00	0.000000e+00	
1.251909e-02	-8.304005e-02	1.246684e-01	5.323143e+00	-1.085705e+01	2.706566e+04	1.059170e+04	2.959646e+02	-4.971093e+00	2.812324e-01	1.826759e-05	0.000000e+00	0.000000e+00	0.000000e+00	0.000000e+00	
1.529738e-02	-8.842758e-02	1.245189e-01	5.852634e+00	-1.077102e+01	2.703782e+04	1.057377e+04	2.958182e+02	-5.142409e+00	2.855203e-01	1.826062e-05	0.000000e+00	0.000000e+00	0.000000e+00	0.000000e+00	
1.843145e-02	-9.391602e-02	1.243760e-01	6.391259e+00	-1.063699e+01	2.701103e+04	1.055679e+04	2.956825e+02	-5.304693e+00	2.894365e-01	1.825415e-05	0.000000e+00	0.000000e+00	0.000000e+00	0.000000e+00	
2.196161e-02	-9.951280e-02	1.242513e-01	6.920225e+00	-1.045513e+01	2.698757e+04	1.054199e+04	2.955644e+02	-5.446028e+00	2.927854e-01	1.824852e-05	0.000000e+00	0.000000e+00	0.000000e+00	0.000000e+00	
2.590787e-02	-1.052049e-01	1.241476e-01	7.434488e+00	-1.024331e+01	2.696839e+04	1.052928e+04	2.954545e+02	-5.567479e+00	2.958658e-01	1.824328e-05	0.000000e+00	0.000000e+00	0.000000e+00	0.000000e+00	
3.032086e-02	-1.110239e-01	1.240441e-01	7.941701e+00	-1.000485e+01	2.694923e+04	1.051661e+04	2.953453e+02	-5.688515e+00	2.989007e-01	1.823808e-05	0.000000e+00	0.000000e+00	0.000000e+00	0.000000e+00	
3.519676e-02	-1.169004e-01	1.239377e-01	8.447262e+00	-9.724825e+00	2.692922e+04	1.050393e+04	2.952423e+02	-5.809721e+00	3.017303e-01	1.823317e-05	0.000000e+00	0.000000e+00	0.000000e+00	0.000000e+00	
4.055945e-02	-1.228035e-01	1.238482e-01	8.939663e+00	-9.398228e+00	2.691233e+04	1.049324e+04	2.951551e+02	-5.911847e+00	3.040931e-01	1.822901e-05	0.000000e+00	0.000000e+00	0.000000e+00	0.000000e+00	
4.640551e-02	-1.286774e-01	1.237792e-01	9.407948e+00	-9.028755e+00	2.689924e+04	1.048497e+04	2.950869e+02	-5.990853e+00	3.059065e-01	1.822575e-05	0.000000e+00	0.000000e+00	0.000000e+00	0.000000e+00	
5.272092e-02	-1.344679e-01	1.237321e-01	9.841758e+00	-8.618841e+00	2.689010e+04	1.047940e+04	2.950424e+02	-6.044017e+00	3.070493e-01	1.822363e-05	0.000000e+00	0.000000e+00	0.000000e+00	0.000000e+00	