TITLE = "SU2 Simulation"
VARIABLES = "Iteration","CLift","CDrag","CSideForce","CMx","CMy","CMz","CFx","CFy","CFz","CL/CD","HeatFlux_Total","HeatFlux_Maximum","Res_Flow[0]","Res_Flow[1]","Res_Flow[2]","Res_Flow[3]","Res_Flow[4]","Linear_Solver_Iterations","CFL_Number","Time(min)"
ZONE T= "Convergence history"
           0, -7.08131276e+00, 5.64161748e+00, 0.00000000e+00, 0.00000000e+00, 0.00000000e+00, -3.32944786e+00, 3.47119647e+00, -8.36203524e+00, 0.00000000e+00, -1.25519193e+00, 0.00000000e+00, 0.00000000e+00, -2.31168268e+00, -7.22981557e-01, -1.10839150e+00, 3.16864348e+00, 0.00000000e+00, 8.0000000000, 4.0000000000, 0.0095971365
           1, -1.00403286e+01, 7.94162012e+00, 0.00000000e+00, 0.00000000e+00, 0.00000000e+00, -4.74144934e+00, 4.86648560e+00, -1.18403905e+01, 0.00000000e+00, -1.26426704e+00, 0.00000000e+00, 0.00000000e+00, -2.49191543e+00, -4.85777941e-01, -1.60075159e-01, 2.98495921e+00, 0.00000000e+00, 8.0000000000, 4.0000000000, 0.0112974978
           2, -1.03126258e+01, 8.05849326e+00, 0.00000000e+00, 0.00000000e+00, 0.00000000e+00, -4.88212741e+00, 4.90377600e+00, -1.21343539e+01, 0.00000000e+00, -1.27972134e+00, 0.00000000e+00, 0.00000000e+00, -2.64914807e+00, -4.25739710e-01, -7.96072357e-02, 2.83156402e+00, 0.00000000e+00, 8.0000000000, 4.0000000000, 0.0125374159
           3, -9.56345892e+00, 7.37233522e+00, 0.00000000e+00, 0.00000000e+00, 0.00000000e+00, -4.53073170e+00, 4.45069693e+00, -1.12250777e+01, 0.00000000e+00, -1.29720891e+00, 0.00000000e+00, 0.00000000e+00, -2.65199028e+00, -4.70416935e-01, -1.33086154e-01, 2.82834979e+00, 0.00000000e+00, 8.0000000000, 4.0000000000, 0.0135385707
           4, -8.84408372e+00, 6.72368223e+00, 0.00000000e+00, 0.00000000e+00, 0.00000000e+00, -4.18335821e+00, 4.02545833e+00, -1.03547769e+01, 0.00000000e+00, -1.31536313e+00, 0.00000000e+00, 0.00000000e+00, -2.66053141e+00, -4.93251499e-01, -1.79723509e-01, 2.81805341e+00, 0.00000000e+00, 8.0000000000, 4.0000000000, 0.0143612621
           5, -8.53264367e+00, 6.39787610e+00, 0.00000000e+00, 0.00000000e+00, 0.00000000e+00, -4.02333673e+00, 3.79811789e+00, -9.96559718e+00, 0.00000000e+00, -1.33366816e+00, 0.00000000e+00, 0.00000000e+00, -2.69555745e+00, -4.80151935e-01, -1.84488079e-01, 2.78364195e+00, 0.00000000e+00, 8.0000000000, 4.0000000000, 0.0155410241
           6, -8.57085683e+00, 6.33736710e+00, 0.00000000e+00, 0.00000000e+00, 0.00000000e+00, -4.02729792e+00, 3.72941993e+00, -9.98565148e+00, 0.00000000e+00, -1.35243181e+00, 0.00000000e+00, 0.00000000e+00, -2.71616226e+00, -4.61496546e-01, -1.82625289e-01, 2.76429995e+00, 0.00000000e+00, 8.0000000000, 4.0000000000, 0.0181392436
           7, -8.74010824e+00, 6.36814959e+00, 0.00000000e+00, 0.00000000e+00, 0.00000000e+00, -4.09189034e+00, 3.71235795e+00, -1.01568312e+01, 0.00000000e+00, -1.37247219e+00, 0.00000000e+00, 0.00000000e+00, -2.71853774e+00, -4.41610377e-01, -1.84307009e-01, 2.76221364e+00, 0.00000000e+00, 8.0000000000, 4.0000000000, 0.0254736111
           8, -8.86658221e+00, 6.35897594e+00, 0.00000000e+00, 0.00000000e+00, 0.00000000e+00, -4.13298050e+00, 3.66867872e+00, -1.02758772e+01, 0.00000000e+00, -1.39434121e+00, 0.00000000e+00, 0.00000000e+00, -2.72008987e+00, -4.17921105e-01, -1.83954535e-01, 2.76053939e+00, 0.00000000e+00, 8.0000000000, 4.0000000000, 0.0264053456
           9, -8.88443610e+00, 6.26395707e+00, 0.00000000e+00, 0.00000000e+00, 0.00000000e+00, -4.11755403e+00, 3.57241952e+00, -1.02668487e+01, 0.00000000e+00, -1.41834243e+00, 0.00000000e+00, 0.00000000e+00, -2.72524401e+00, -3.91964770e-01, -1.81484215e-01, 2.75544323e+00, 0.00000000e+00, 8.0000000000, 4.0000000000, 0.0281028063
          10, -8.81003061e+00, 6.09817178e+00, 0.00000000e+00, 0.00000000e+00, 0.00000000e+00, -4.05240153e+00, 3.43356541e+00, -1.01496289e+01, 0.00000000e+00, -1.44470030e+00, 0.00000000e+00, 0.00000000e+00, -2.73086949e+00, -3.65775839e-01, -1.79442317e-01, 2.75003186e+00, 0.00000000e+00, 8.0000000000, 4.0000000000, 0.0297404629
          11, -8.69170555e+00, 5.89809292e+00, 0.00000000e+00, 0.00000000e+00, 0.00000000e+00, -3.96032355e+00, 3.27385207e+00, -9.98073836e+00, 0.00000000e+00, -1.47364676e+00, 0.00000000e+00, 0.00000000e+00, -2.73520160e+00, -3.40246269e-01, -1.78112140e-01, 2.74595307e+00, 0.00000000e+00, 8.0000000000, 4.0000000000, 0.0319330383
          12, -8.57045790e+00, 5.69290174e+00, 0.00000000e+00, 0.00000000e+00, 0.00000000e+00, -3.86106155e+00, 3.11003003e+00, -9.80762928e+00, 0.00000000e+00, -1.50546387e+00, 0.00000000e+00, 0.00000000e+00, -2.73826360e+00, -3.15863325e-01, -1.76456726e-01, 2.74317843e+00, 0.00000000e+00, 8.0000000000, 4.0000000000, 0.0336698147
          13, -8.46420262e+00, 5.49439822e+00, 0.00000000e+00, 0.00000000e+00, 0.00000000e+00, -3.76338936e+00, 2.94850412e+00, -9.65077516e+00, 0.00000000e+00, -1.54051495e+00, 0.00000000e+00, 0.00000000e+00, -2.74009796e+00, -2.93031734e-01, -1.73807154e-01, 2.74167833e+00, 0.00000000e+00, 8.0000000000, 4.0000000000, 0.0384047768
          14, -8.37110673e+00, 5.30057806e+00, 0.00000000e+00, 0.00000000e+00, 0.00000000e+00, -3.66652707e+00, 2.78785293e+00, -9.50786157e+00, 0.00000000e+00, -1.57928185e+00, 0.00000000e+00, 0.00000000e+00, -2.74053445e+00, -2.71937775e-01, -1.69975811e-01, 2.74159762e+00, 0.00000000e+00, 8.0000000000, 4.0000000000, 0.0400736024
          15, -8.28034571e+00, 5.10383858e+00, 0.00000000e+00, 0.00000000e+00, 0.00000000e+00, -3.56530906e+00, 2.62375193e+00, -9.36638773e+00, 0.00000000e+00, -1.62237610e+00, 0.00000000e+00, 0.00000000e+00, -2.73956848e+00, -2.52501207e-01, -1.64860530e-01, 2.74290220e+00, 0.00000000e+00, 8.0000000000, 4.0000000000, 0.0417370182
          16, -8.18158865e+00, 4.89761289e+00, 0.00000000e+00, 0.00000000e+00, 0.00000000e+00, -3.45483914e+00, 2.45273621e+00, -9.21461285e+00, 0.00000000e+00, -1.67052579e+00, 0.00000000e+00, 0.00000000e+00, -2.73740023e+00, -2.34482129e-01, -1.58350015e-01, 2.74536345e+00, 0.00000000e+00, 8.0000000000, 4.0000000000, 0.0437325891
          17, -8.06947727e+00, 4.67915402e+00, 0.00000000e+00, 0.00000000e+00, 0.00000000e+00, -3.33273373e+00, 2.27364215e+00, -9.04662905e+00, 0.00000000e+00, -1.72455902e+00, 0.00000000e+00, 0.00000000e+00, -2.73429608e+00, -2.17610259e-01, -1.50414479e-01, 2.74869550e+00, 0.00000000e+00, 8.0000000000, 4.0000000000, 0.0452035118
          18, -7.94357565e+00, 4.44917257e+00, 0.00000000e+00, 0.00000000e+00, 0.00000000e+00, -3.19913008e+00, 2.08727298e+00, -8.86221316e+00, 0.00000000e+00, -1.78540516e+00, 0.00000000e+00, 0.00000000e+00, -2.73050993e+00, -2.01669629e-01, -1.41162245e-01, 2.75262695e+00, 0.00000000e+00, 8.0000000000, 4.0000000000, 0.0459984591
          19, -7.80611072e+00, 4.21012616e+00, 0.00000000e+00, 0.00000000e+00, 0.00000000e+00, -3.05558639e+00, 1.89537729e+00, -8.66418327e+00, 0.00000000e+00, -1.85412751e+00, 0.00000000e+00, 0.00000000e+00, -2.72625086e+00, -1.86548161e-01, -1.30844156e-01, 2.75693034e+00, 0.00000000e+00, 8.0000000000, 4.0000000000, 0.0465991198
          20, -7.65963587e+00, 3.96462247e+00, 0.00000000e+00, 0.00000000e+00, 0.00000000e+00, -2.90392422e+00, 1.69975794e+00, -8.45571263e+00, 0.00000000e+00, -1.93199628e+00, 0.00000000e+00, 0.00000000e+00, -2.72163060e+00, -1.72248074e-01, -1.19839645e-01, 2.76147487e+00, 0.00000000e+00, 8.0000000000, 4.0000000000, 0.0473326770
          21, -7.50570072e+00, 3.71458895e+00, 0.00000000e+00, 0.00000000e+00, 0.00000000e+00, -2.74555741e+00, 1.50184058e+00, -8.23882208e+00, 0.00000000e+00, -2.02060061e+00, 0.00000000e+00, 0.00000000e+00, -2.71661696e+00, -1.58868645e-01, -1.08630399e-01, 2.76627396e+00, 0.00000000e+00, 8.0000000000, 4.0000000000, 0.0483300083
          22, -7.34461066e+00, 3.46118351e+00, 0.00000000e+00, 0.00000000e+00, 0.00000000e+00, -2.58135655e+00, 1.30265407e+00, -8.01412437e+00, 0.00000000e+00, -2.12199401e+00, 0.00000000e+00, 0.00000000e+00, -2.71102416e+00, -1.46568251e-01, -9.77541822e-02, 2.77149881e+00, 0.00000000e+00, 8.0000000000, 4.0000000000, 0.0491306927
          23, -7.17583179e+00, 3.20509721e+00, 0.00000000e+00, 0.00000000e+00, 0.00000000e+00, -2.41183305e+00, 1.10300988e+00, -7.78129676e+00, 0.00000000e+00, -2.23888117e+00, 0.00000000e+00, 0.00000000e+00, -2.70455796e+00, -1.35520863e-01, -8.77479770e-02, 2.77743942e+00, 0.00000000e+00, 8.0000000000, 4.0000000000, 0.0498719188
          24, -6.99853853e+00, 2.94690519e+00, 0.00000000e+00, 0.00000000e+00, 0.00000000e+00, -2.23739432e+00, 9.03688421e-01, -7.53970417e+00, 0.00000000e+00, -2.37487740e+00, 0.00000000e+00, 0.00000000e+00, -2.69689857e+00, -1.25879025e-01, -7.90940509e-02, 2.78442770e+00, 0.00000000e+00, 8.0000000000, 4.0000000000, 0.0504406326
          25, -6.81198943e+00, 2.68727963e+00, 0.00000000e+00, 0.00000000e+00, 0.00000000e+00, -2.05851633e+00, 7.05540224e-01, -7.28881916e+00, 0.00000000e+00, -2.53490159e+00, 0.00000000e+00, 0.00000000e+00, -2.68780010e+00, -1.17748311e-01, -7.21799758e-02, 2.79274096e+00, 0.00000000e+00, 8.0000000000, 4.0000000000, 0.0563963960
          26, -6.61565103e+00, 2.42703383e+00, 0.00000000e+00, 0.00000000e+00, 0.00000000e+00, -1.87579335e+00, 5.09494094e-01, -7.02835311e+00, 0.00000000e+00, -2.72581740e+00, 0.00000000e+00, 0.00000000e+00, -2.67717175e+00, -1.11170515e-01, -6.72731975e-02, 2.80251845e+00, 0.00000000e+00, 8.0000000000, 4.0000000000, 0.0719962773
          27, -6.40914420e+00, 2.16705583e+00, 0.00000000e+00, 0.00000000e+00, 0.00000000e+00, -1.68990347e+00, 3.16508199e-01, -6.75818636e+00, 0.00000000e+00, -2.95753534e+00, 0.00000000e+00, 0.00000000e+00, -2.66511875e+00, -1.06114384e-01, -6.45059659e-02, 2.81371267e+00, 0.00000000e+00, 8.0000000000, 4.0000000000, 0.0818045555
          28, -6.19212227e+00, 1.90821206e+00, 0.00000000e+00, 0.00000000e+00, 0.00000000e+00, -1.50154269e+00, 1.27510951e-01, -6.47822448e+00, 0.00000000e+00, -3.24498645e+00, 0.00000000e+00, 0.00000000e+00, -2.65193762e+00, -1.02472749e-01, -6.38649819e-02, 2.82608397e+00, 0.00000000e+00, 8.0000000000, 4.0000000000, 0.0839358702
          29, -5.96416706e+00, 1.65127411e+00, 0.00000000e+00, 0.00000000e+00, 0.00000000e+00, -1.31137098e+00, -5.66406916e-02, -6.18827818e+00, 0.00000000e+00, -3.61185768e+00, 0.00000000e+00, 0.00000000e+00, -2.63807438e+00, -1.00066056e-01, -6.51825554e-02, 2.83923256e+00, 0.00000000e+00, 8.0000000000, 4.0000000000, 0.0849415565
          30, -5.72473940e+00, 1.39688762e+00, 0.00000000e+00, 0.00000000e+00, 0.00000000e+00, -1.11998795e+00, -2.35177469e-01, -5.88800712e+00, 0.00000000e+00, -4.09821042e+00, 0.00000000e+00, 0.00000000e+00, -2.62406044e+00, -9.86556538e-02, -6.81335835e-02, 2.85265694e+00, 0.00000000e+00, 8.0000000000, 4.0000000000, 0.0860740058
          31, -5.47318258e+00, 1.14557588e+00, 0.00000000e+00, 0.00000000e+00, 0.00000000e+00, -9.27934621e-01, -4.07415356e-01, -5.57692427e+00, 0.00000000e+00, -4.77766916e+00, 0.00000000e+00, 0.00000000e+00, -2.61044340e+00, -9.79692273e-02, -7.22466286e-02, 2.86582200e+00, 0.00000000e+00, 8.0000000000, 4.0000000000, 0.0874297602
          32, -5.20875819e+00, 8.97763000e-01, 0.00000000e+00, 0.00000000e+00, 0.00000000e+00, -7.35710823e-01, -5.72743151e-01, -5.25443675e+00, 0.00000000e+00, -5.80193012e+00, 0.00000000e+00, 0.00000000e+00, -2.59772167e+00, -9.77395972e-02, -7.69432751e-02, 2.87822705e+00, 0.00000000e+00, 8.0000000000, 4.0000000000, 0.0893053947
          33, -4.93069497e+00, 6.53804153e-01, 0.00000000e+00, 0.00000000e+00, 0.00000000e+00, -5.43798191e-01, -7.30606834e-01, -4.91990105e+00, 0.00000000e+00, -7.54154733e+00, 0.00000000e+00, 0.00000000e+00, -2.58629081e+00, -9.77546317e-02, -8.16155632e-02, 2.88946440e+00, 0.00000000e+00, 8.0000000000, 4.0000000000, 0.0905324943
          34, -4.63823757e+00, 4.14014380e-01, 0.00000000e+00, 0.00000000e+00, 0.00000000e+00, -3.52682235e-01, -8.80495375e-01, -4.57267794e+00, 0.00000000e+00, -1.12030833e+01, 0.00000000e+00, 0.00000000e+00, -2.57640253e+00, -9.79069827e-02, -8.57388416e-02, 2.89926560e+00, 0.00000000e+00, 8.0000000000, 4.0000000000, 0.0916077467
          35, -4.33069216e+00, 1.78694064e-01, 0.00000000e+00, 0.00000000e+00, 0.00000000e+00, -1.62871352e-01, -1.02192878e+00, -4.21218325e+00, 0.00000000e+00, -2.42352323e+01, 0.00000000e+00, 0.00000000e+00, -2.56813759e+00, -9.82279192e-02, -8.89923222e-02, 2.90753331e+00, 0.00000000e+00, 8.0000000000, 4.0000000000, 0.0921698849
          36, -4.00747186e+00, -5.18440687e-02, 0.00000000e+00, 0.00000000e+00, 0.00000000e+00, 2.50849711e-02, -1.15444467e+00, -3.83793904e+00, 0.00000000e+00, 7.72985602e+01, 0.00000000e+00, 0.00000000e+00, -2.56139404e+00, -9.88882016e-02, -9.13410151e-02, 2.91435668e+00, 0.00000000e+00, 8.0000000000, 4.0000000000, 0.0929316946
          37, -3.66814181e+00, -2.77248385e-01, 0.00000000e+00, 0.00000000e+00, 0.00000000e+00, 2.10579807e-01, -1.27758516e+00, -3.44962421e+00, 0.00000000e+00, 1.32305254e+01, 0.00000000e+00, 0.00000000e+00, -2.55589397e+00, -1.00155146e-01, -9.30346727e-02, 2.92000669e+00, 0.00000000e+00, 8.0000000000, 4.0000000000, 0.0936738472
          38, -3.31246490e+00, -4.97108264e-01, 0.00000000e+00, 0.00000000e+00, 0.00000000e+00, 3.92934357e-01, -1.39089020e+00, -3.04712402e+00, 0.00000000e+00, 6.66346778e+00, 0.00000000e+00, 0.00000000e+00, -2.55121390e+00, -1.02308290e-01, -9.45088244e-02, 2.92490635e+00, 0.00000000e+00, 8.0000000000, 4.0000000000, 0.0944057540
          39, -2.94044564e+00, -7.10934425e-01, 0.00000000e+00, 0.00000000e+00, 0.00000000e+00, 5.71386304e-01, -1.49389069e+00, -2.63057768e+00, 0.00000000e+00, 4.13602934e+00, 0.00000000e+00, 0.00000000e+00, -2.54684281e+00, -1.05526889e-01, -9.62130669e-02, 2.92957097e+00, 0.00000000e+00, 8.0000000000, 4.0000000000, 0.0952419033
          40, -2.55236657e+00, -9.18143662e-01, 0.00000000e+00, 0.00000000e+00, 0.00000000e+00, 7.45084172e-01, -1.58610390e+00, -2.20041752e+00, 0.00000000e+00, 2.77992070e+00, 0.00000000e+00, 0.00000000e+00, -2.54226702e+00, -1.09770761e-01, -9.84162522e-02, 2.93451933e+00, 0.00000000e+00, 8.0000000000, 4.0000000000, 0.0976304761
          41, -2.14881549e+00, -1.11805110e+00, 0.00000000e+00, 0.00000000e+00, 0.00000000e+00, 9.13088326e-01, -1.66703352e+00, -1.75739738e+00, 0.00000000e+00, 1.92192959e+00, 0.00000000e+00, 0.00000000e+00, -2.53707085e+00, -1.14681075e-01, -1.01038388e-01, 2.94016732e+00, 0.00000000e+00, 8.0000000000, 4.0000000000, 0.0996024454
          42, -1.73070022e+00, -1.30987114e+00, 0.00000000e+00, 0.00000000e+00, 0.00000000e+00, 1.07438020e+00, -1.73617459e+00, -1.30260641e+00, 0.00000000e+00, 1.32127517e+00, 0.00000000e+00, 0.00000000e+00, -2.53103050e+00, -1.19535048e-01, -1.03553210e-01, 2.94672832e+00, 0.00000000e+00, 8.0000000000, 4.0000000000, 0.1003965554
          43, -1.29925096e+00, -1.49272617e+00, 0.00000000e+00, 0.00000000e+00, 0.00000000e+00, 1.22787920e+00, -1.79302259e+00, -8.37469089e-01, 0.00000000e+00, 8.70388013e-01, 0.00000000e+00, 0.00000000e+00, -2.52417350e+00, -1.23296856e-01, -1.05006542e-01, 2.95415067e+00, 0.00000000e+00, 8.0000000000, 4.0000000000, 0.1009161530
          44, -8.56009891e-01, -1.66566320e+00, 0.00000000e+00, 0.00000000e+00, 0.00000000e+00, 1.37246668e+00, -1.83708653e+00, -3.63730519e-01, 0.00000000e+00, 5.13915353e-01, 0.00000000e+00, 0.00000000e+00, -2.51678425e+00, -1.24801598e-01, -1.04194661e-01, 2.96211304e+00, 0.00000000e+00, 8.0000000000, 4.0000000000, 0.1016450166
          45, -4.02809656e-01, -1.82767739e+00, 0.00000000e+00, 0.00000000e+00, 0.00000000e+00, 1.50701556e+00, -1.86790565e+00, 1.16570669e-01, 0.00000000e+00, 2.20394288e-01, 0.00000000e+00, 0.00000000e+00, -2.50935626e+00, -1.23061392e-01, -1.00007329e-01, 2.97007702e+00, 0.00000000e+00, 8.0000000000, 4.0000000000, 0.1023873578
          46, 5.82543081e-02, -1.97773916e+00, 0.00000000e+00, 0.00000000e+00, 0.00000000e+00, 1.63042162e+00, -1.88506784e+00, 6.01136428e-01, 0.00000000e+00, -2.94550006e-02, 0.00000000e+00, 0.00000000e+00, -2.50251055e+00, -1.17596208e-01, -9.18404433e-02, 2.97737528e+00, 0.00000000e+00, 8.0000000000, 4.0000000000, 0.1034700751
          47, 5.24856010e-01, -2.11482279e+00, 0.00000000e+00, 0.00000000e+00, 0.00000000e+00, 1.74163561e+00, -1.88822822e+00, 1.08744814e+00, 0.00000000e+00, -2.48179664e-01, 0.00000000e+00, 0.00000000e+00, -2.49690772e+00, -1.08629181e-01, -7.98840527e-02, 2.98330540e+00, 0.00000000e+00, 8.0000000000, 4.0000000000, 0.1044633816
          48, 9.94471725e-01, -2.23793740e+00, 0.00000000e+00, 0.00000000e+00, 0.00000000e+00, 1.83969387e+00, -1.87712994e+00, 1.57280672e+00, 0.00000000e+00, -4.44369769e-01, 0.00000000e+00, 0.00000000e+00, -2.49317477e+00, -9.70363549e-02, -6.51200150e-02, 2.98720678e+00, 0.00000000e+00, 8.0000000000, 4.0000000000, 0.1062660122
          49, 1.46440987e+00, -2.34615618e+00, 0.00000000e+00, 0.00000000e+00, 0.00000000e+00, 1.92374506e+00, -1.85162400e+00, 2.05436940e+00, 0.00000000e+00, -6.24174079e-01, 0.00000000e+00, 0.00000000e+00, -2.49185585e+00, -8.40904165e-02, -4.90427822e-02, 2.98851177e+00, 0.00000000e+00, 8.0000000000, 4.0000000000, 0.1082699238
          50, 1.93183707e+00, -2.43864274e+00, 0.00000000e+00, 0.00000000e+00, 0.00000000e+00, 1.99307228e+00, -1.81168739e+00, 2.52918202e+00, 0.00000000e+00, -7.92177156e-01, 0.00000000e+00, 0.00000000e+00, -2.49338471e+00, -7.11488545e-02, -3.32805822e-02, 2.98677361e+00, 0.00000000e+00, 8.0000000000, 4.0000000000, 0.1261962409
          51, 2.39379884e+00, -2.51467781e+00, 0.00000000e+00, 0.00000000e+00, 0.00000000e+00, 2.04711098e+00, -1.75744308e+00, 2.99420627e+00, 0.00000000e+00, -9.51930631e-01, 0.00000000e+00, 0.00000000e+00, -2.49807073e+00, -5.94215615e-02, -1.92967767e-02, 2.98168047e+00, 0.00000000e+00, 8.0000000000, 4.0000000000, 0.1469296124
          52, 2.84723557e+00, -2.57367742e+00, 0.00000000e+00, 0.00000000e+00, 0.00000000e+00, 2.08546145e+00, -1.68917304e+00, 3.44634013e+00, 0.00000000e+00, -1.10629077e+00, 0.00000000e+00, 0.00000000e+00, -2.50608909e+00, -4.98634964e-02, -8.23930221e-03, 2.97306591e+00, 0.00000000e+00, 8.0000000000, 4.0000000000, 0.1596732378
          53, 3.28899413e+00, -2.61521329e+00, 0.00000000e+00, 0.00000000e+00, 0.00000000e+00, 2.10789786e+00, -1.60733472e+00, 3.88243455e+00, 0.00000000e+00, -1.25763896e+00, 0.00000000e+00, 0.00000000e+00, -2.51746617e+00, -4.31664247e-02, -9.10628758e-04, 2.96092509e+00, 0.00000000e+00, 8.0000000000, 4.0000000000, 0.1611341501
          54, 3.71583674e+00, -2.63902820e+00, 0.00000000e+00, 0.00000000e+00, 0.00000000e+00, 2.11437293e+00, -1.51257331e+00, 4.29930628e+00, 0.00000000e+00, -1.40803222e+00, 0.00000000e+00, 0.00000000e+00, -2.53205362e+00, -3.98010199e-02, 2.20075528e-03, 2.94544391e+00, 0.00000000e+00, 8.0000000000, 4.0000000000, 0.1617030845
          55, 4.12444965e+00, -2.64504391e+00, 0.00000000e+00, 0.00000000e+00, 0.00000000e+00, 2.10501916e+00, -1.40572699e+00, 4.69374838e+00, 0.00000000e+00, -1.55931236e+00, 0.00000000e+00, 0.00000000e+00, -2.54948792e+00, -4.00696941e-02, 8.75056327e-04, 2.92704441e+00, 0.00000000e+00, 8.0000000000, 4.0000000000, 0.1635380691
          56, 4.51145405e+00, -2.63336859e+00, 0.00000000e+00, 0.00000000e+00, 0.00000000e+00, 2.08014825e+00, -1.28783109e+00, 5.06254272e+00, 0.00000000e+00, -1.71318746e+00, 0.00000000e+00, 0.00000000e+00, -2.56913806e+00, -4.41458446e-02, -4.87066436e-03, 2.90644298e+00, 0.00000000e+00, 8.0000000000, 4.0000000000, 0.1663312431
          57, 4.87342198e+00, -2.60429548e+00, 0.00000000e+00, 0.00000000e+00, 0.00000000e+00, 2.04024766e+00, -1.16011234e+00, 5.40247500e+00, 0.00000000e+00, -1.87130148e+00, 0.00000000e+00, 0.00000000e+00, -2.59005630e+00, -5.20883697e-02, -1.47891689e-02, 2.88470339e+00, 0.00000000e+00, 8.0000000000, 4.0000000000, 0.1673323378
          58, 5.20689939e+00, -2.55830265e+00, 0.00000000e+00, 0.00000000e+00, 0.00000000e+00, 1.98597624e+00, -1.02398236e+00, 5.71035671e+00, 0.00000000e+00, -2.03529453e+00, 0.00000000e+00, 0.00000000e+00, -2.61096564e+00, -6.38274945e-02, -2.83826703e-02, 2.86324427e+00, 0.00000000e+00, 8.0000000000, 4.0000000000, 0.1688036776
          59, 5.50843911e+00, -2.49604649e+00, 0.00000000e+00, 0.00000000e+00, 0.00000000e+00, 1.91815758e+00, -8.81022292e-01, 5.98305518e+00, 0.00000000e+00, -2.20686559e+00, 0.00000000e+00, 0.00000000e+00, -2.63033912e+00, -7.91227819e-02, -4.48628914e-02, 2.84373639e+00, 0.00000000e+00, 8.0000000000, 4.0000000000, 0.1697397578
          60, 5.77464589e+00, -2.41835074e+00, 0.00000000e+00, 0.00000000e+00, 0.00000000e+00, 1.83777128e+00, -7.32959808e-01, 6.21753370e+00, 0.00000000e+00, -2.38784466e+00, 0.00000000e+00, 0.00000000e+00, -2.64662360e+00, -9.74983281e-02, -6.31120123e-02, 2.82783281e+00, 0.00000000e+00, 8.0000000000, 4.0000000000, 0.1703056690
          61, 6.00222850e+00, -2.32619336e+00, 0.00000000e+00, 0.00000000e+00, 0.00000000e+00, 1.74594213e+00, -5.81642183e-01, 6.41089814e+00, 0.00000000e+00, -2.58027927e+00, 0.00000000e+00, 0.00000000e+00, -2.65860178e+00, -1.18168616e-01, -8.16859497e-02, 2.81675345e+00, 0.00000000e+00, 8.0000000000, 4.0000000000, 0.1710698480
          62, 6.18806293e+00, -2.22069041e+00, 0.00000000e+00, 0.00000000e+00, 0.00000000e+00, 1.64392627e+00, -4.29003322e-01, 6.56045310e+00, 0.00000000e+00, -2.78654914e+00, 0.00000000e+00, 0.00000000e+00, -2.66576875e+00, -1.39984315e-01, -9.89200140e-02, 2.81088604e+00, 0.00000000e+00, 8.0000000000, 4.0000000000, 0.1718071303
          63, 6.32926148e+00, -2.10307589e+00, 0.00000000e+00, 0.00000000e+00, 0.00000000e+00, 1.53309354e+00, -2.77025401e-01, 6.66376290e+00, 0.00000000e+00, -3.00952595e+00, 0.00000000e+00, 0.00000000e+00, -2.66852065e+00, -1.61450611e-01, -1.13187144e-01, 2.80963483e+00, 0.00000000e+00, 8.0000000000, 4.0000000000, 0.1729678826
          64, 6.42324711e+00, -1.97467856e+00, 0.00000000e+00, 0.00000000e+00, 0.00000000e+00, 1.41490591e+00, -1.27696010e-01, 6.71871659e+00, 0.00000000e+00, -3.25280643e+00, 0.00000000e+00, 0.00000000e+00, -2.66803246e+00, -1.80885147e-01, -1.23284237e-01, 2.81162118e+00, 0.00000000e+00, 8.0000000000, 4.0000000000, 0.1742031463
          65, 6.46783051e+00, -1.83689694e+00, 0.00000000e+00, 0.00000000e+00, 0.00000000e+00, 1.29089320e+00, 1.70370339e-02, 6.72359514e+00, 0.00000000e+00, -3.52106336e+00, 0.00000000e+00, 0.00000000e+00, -2.66590085e+00, -1.96749892e-01, -1.28797929e-01, 2.81510632e+00, 0.00000000e+00, 8.0000000000, 4.0000000000, 0.1752045848
          66, 6.46128275e+00, -1.69117141e+00, 0.00000000e+00, 0.00000000e+00, 0.00000000e+00, 1.16262466e+00, 1.55312595e-01, 6.67713363e+00, 0.00000000e+00, -3.82059602e+00, 0.00000000e+00, 0.00000000e+00, -2.66375209e+00, -2.08081427e-01, -1.30242779e-01, 2.81840311e+00, 0.00000000e+00, 8.0000000000, 4.0000000000, 0.1765368229
          67, 6.40240203e+00, -1.53895534e+00, 0.00000000e+00, 0.00000000e+00, 0.00000000e+00, 1.03167732e+00, 2.85402343e-01, 6.57857742e+00, 0.00000000e+00, -4.16022600e+00, 0.00000000e+00, 0.00000000e+00, -2.66296816e+00, -2.14813963e-01, -1.28880202e-01, 2.82013232e+00, 0.00000000e+00, 8.0000000000, 4.0000000000, 0.1773325683
          68, 6.29057030e+00, -1.38168651e+00, 0.00000000e+00, 0.00000000e+00, 0.00000000e+00, 8.99602287e-01, 4.05753850e-01, 6.42772869e+00, 0.00000000e+00, -4.55282025e+00, 0.00000000e+00, 0.00000000e+00, -2.66456442e+00, -2.17792438e-01, -1.26333509e-01, 2.81931525e+00, 0.00000000e+00, 8.0000000000, 4.0000000000, 0.1782030433
          69, 6.12579908e+00, -1.22075593e+00, 0.00000000e+00, 0.00000000e+00, 0.00000000e+00, 7.67889331e-01, 5.15033150e-01, 6.22498195e+00, 0.00000000e+00, -5.01803756e+00, 0.00000000e+00, 0.00000000e+00, -2.66917481e+00, -2.18465627e-01, -1.24207692e-01, 2.81536384e+00, 0.00000000e+00, 8.0000000000, 4.0000000000, 0.1787728760
          70, 5.90875582e+00, -1.05748266e+00, 0.00000000e+00, 0.00000000e+00, 0.00000000e+00, 6.37932171e-01, 6.12156260e-01, 5.97134237e+00, 0.00000000e+00, -5.58756760e+00, 0.00000000e+00, 0.00000000e+00, -2.67708764e+00, -2.18451820e-01, -1.23847897e-01, 2.80802909e+00, 0.00000000e+00, 8.0000000000, 4.0000000000, 0.1795312614
          71, 5.64077121e+00, -8.93090616e-01, 0.00000000e+00, 0.00000000e+00, 0.00000000e+00, 5.10995077e-01, 6.96313459e-01, 5.66842643e+00, 0.00000000e+00, -6.31601217e+00, 0.00000000e+00, 0.00000000e+00, -2.68829379e+00, -2.19188301e-01, -1.26248626e-01, 2.79734438e+00, 0.00000000e+00, 8.0000000000, 4.0000000000, 0.1805354693
          72, 5.32382876e+00, -7.28685657e-01, 0.00000000e+00, 0.00000000e+00, 0.00000000e+00, 3.88182229e-01, 7.66988471e-01, 5.31844565e+00, 0.00000000e+00, -7.30607046e+00, 0.00000000e+00, 0.00000000e+00, -2.70253069e+00, -2.21750914e-01, -1.32060474e-01, 2.78357685e+00, 0.00000000e+00, 8.0000000000, 4.0000000000, 0.1819328493
          73, 4.96053287e+00, -5.65241631e-01, 0.00000000e+00, 0.00000000e+00, 0.00000000e+00, 2.70412061e-01, 8.23963035e-01, 4.92417195e+00, 0.00000000e+00, -8.77595103e+00, 0.00000000e+00, 0.00000000e+00, -2.71932068e+00, -2.26815753e-01, -1.41637231e-01, 2.76718691e+00, 0.00000000e+00, 8.0000000000, 4.0000000000, 0.1832931883
          74, 4.55405565e+00, -4.03589934e-01, 0.00000000e+00, 0.00000000e+00, 0.00000000e+00, 1.58396751e-01, 8.67312314e-01, 4.48888372e+00, 0.00000000e+00, -1.12838683e+01, 0.00000000e+00, 0.00000000e+00, -2.73800994e+00, -2.34698014e-01, -1.55087501e-01, 2.74878972e+00, 0.00000000e+00, 8.0000000000, 4.0000000000, 0.1848055309
          75, 4.10806629e+00, -2.44415767e-01, 0.00000000e+00, 0.00000000e+00, 0.00000000e+00, 5.26287643e-02, 8.97389014e-01, 4.01629688e+00, 0.00000000e+00, -1.68076975e+01, 0.00000000e+00, 0.00000000e+00, -2.75781685e+00, -2.45417774e-01, -1.72314790e-01, 2.72911090e+00, 0.00000000e+00, 8.0000000000, 4.0000000000, 0.1870732311
          76, 3.62664594e+00, -8.82593116e-02, 0.00000000e+00, 0.00000000e+00, 0.00000000e+00, -4.66244818e-02, 9.14798801e-01, 3.51048339e+00, 0.00000000e+00, -4.10908024e+01, 0.00000000e+00, 0.00000000e+00, -2.77789644e+00, -2.58767552e-01, -1.93042678e-01, 2.70893162e+00, 0.00000000e+00, 8.0000000000, 4.0000000000, 0.1892734549
          77, 3.11419260e+00, 6.44755714e-02, 0.00000000e+00, 0.00000000e+00, 0.00000000e+00, -1.39317003e-01, 9.20365712e-01, 2.97578219e+00, 0.00000000e+00, 4.83003490e+01, 0.00000000e+00, 0.00000000e+00, -2.79742001e+00, -2.74375024e-01, -2.16828270e-01, 2.68902415e+00, 0.00000000e+00, 8.0000000000, 4.0000000000, 0.2045293149
          78, 2.57532174e+00, 2.13507481e-01, 0.00000000e+00, 0.00000000e+00, 0.00000000e+00, -2.25611720e-01, 9.15091437e-01, 2.41670750e+00, 0.00000000e+00, 1.20619743e+01, 0.00000000e+00, 0.00000000e+00, -2.81565862e+00, -2.91762976e-01, -2.43071018e-01, 2.67008641e+00, 0.00000000e+00, 8.0000000000, 4.0000000000, 0.2071989712
          79, 2.01476792e+00, 3.58658746e-01, 0.00000000e+00, 0.00000000e+00, 0.00000000e+00, -3.05859511e-01, 9.00110217e-01, 1.83785948e+00, 0.00000000e+00, 5.61750673e+00, 0.00000000e+00, 0.00000000e+00, -2.83205122e+00, -3.10410046e-01, -2.71026358e-01, 2.65268916e+00, 0.00000000e+00, 8.0000000000, 4.0000000000, 0.2084056694
          80, 1.43729358e+00, 4.99832937e-01, 0.00000000e+00, 0.00000000e+00, 0.00000000e+00, -3.80570618e-01, 8.76642060e-01, 1.24384264e+00, 0.00000000e+00, 2.87554796e+00, 0.00000000e+00, 0.00000000e+00, -2.84623886e+00, -3.29812626e-01, -2.99835002e-01, 2.63724768e+00, 0.00000000e+00, 8.0000000000, 4.0000000000, 0.2092720209
          81, 8.47609010e-01, 6.36989938e-01, 0.00000000e+00, 0.00000000e+00, 0.00000000e+00, -4.50379962e-01, 8.45946734e-01, 6.39195852e-01, 0.00000000e+00, 1.33064741e+00, 0.00000000e+00, 0.00000000e+00, -2.85805870e+00, -3.49542692e-01, -3.28576617e-01, 2.62402097e+00, 0.00000000e+00, 8.0000000000, 4.0000000000, 0.2110689980
          82, 2.50307350e-01, 7.70120183e-01, 0.00000000e+00, 0.00000000e+00, 0.00000000e+00, -5.16008153e-01, 8.09281089e-01, 2.83369766e-02, 0.00000000e+00, 3.25023750e-01, 0.00000000e+00, 0.00000000e+00, -2.86750845e+00, -3.69291388e-01, -3.56349162e-01, 2.61312953e+00, 0.00000000e+00, 8.0000000000, 4.0000000000, 0.2122723320
          83, -3.50183617e-01, 8.99219016e-01, 0.00000000e+00, 0.00000000e+00, 0.00000000e+00, -5.78220161e-01, 7.67861110e-01, -5.84476449e-01, 0.00000000e+00, -3.89430840e-01, 0.00000000e+00, 0.00000000e+00, -2.87470203e+00, -3.88886703e-01, -3.82361837e-01, 2.60457684e+00, 0.00000000e+00, 8.0000000000, 4.0000000000, 0.2130281190
          84, -9.49632537e-01, 1.02426292e+00, 0.00000000e+00, 0.00000000e+00, 0.00000000e+00, -6.37783770e-01, 7.22830514e-01, -1.19517051e+00, 0.00000000e+00, -9.27137471e-01, 0.00000000e+00, 0.00000000e+00, -2.87983511e+00, -4.08277949e-01, -4.06015359e-01, 2.59826273e+00, 0.00000000e+00, 8.0000000000, 4.0000000000, 0.2139379197
          85, -1.54401964e+00, 1.14518898e+00, 0.00000000e+00, 0.00000000e+00, 0.00000000e+00, -6.95429646e-01, 6.75236813e-01, -1.79986381e+00, 0.00000000e+00, -1.34826624e+00, 0.00000000e+00, 0.00000000e+00, -2.88316718e+00, -4.27487699e-01, -4.26939228e-01, 2.59398718e+00, 0.00000000e+00, 8.0000000000, 4.0000000000, 0.2147384038
          86, -2.12953910e+00, 1.26187855e+00, 0.00000000e+00, 0.00000000e+00, 0.00000000e+00, -7.51815367e-01, 6.26014990e-01, -2.39486523e+00, 0.00000000e+00, -1.68759434e+00, 0.00000000e+00, 0.00000000e+00, -2.88501500e+00, -4.46539419e-01, -4.44968396e-01, 2.59145192e+00, 0.00000000e+00, 8.0000000000, 4.0000000000, 0.2164696287
          87, -2.70259084e+00, 1.37414463e+00, 0.00000000e+00, 0.00000000e+00, 0.00000000e+00, -8.07494898e-01, 5.75977601e-01, -2.97666264e+00, 0.00000000e+00, -1.96674410e+00, 0.00000000e+00, 0.00000000e+00, -2.88574643e+00, -4.65373693e-01, -4.60067615e-01, 2.59027073e+00, 0.00000000e+00, 8.0000000000, 4.0000000000, 0.2176720199
          88, -3.25976861e+00, 1.48172506e+00, 0.00000000e+00, 0.00000000e+00, 0.00000000e+00, -8.62894313e-01, 5.25811543e-01, -3.54190948e+00, 0.00000000e+00, -2.19998210e+00, 0.00000000e+00, 0.00000000e+00, -2.88576635e+00, -4.83766497e-01, -4.72234523e-01, 2.58999404e+00, 0.00000000e+00, 8.0000000000, 4.0000000000, 0.2185989226