TITLE = "Visualization of the volumetric solution"
VARIABLES = "x""y""Conservative_1""Conservative_2""Conservative_3""Conservative_4""Pressure""Temperature""C<sub>p</sub>""Mach""<greek>m</greek>""C<sub>f</sub>_x""C<sub>f</sub>_y""h""y<sup>+</sup>"
ZONE NODES= 5233, ELEMENTS= 10216, DATAPACKING=POINT, ZONETYPE=FEQUADRILATERAL
1.002197e+00	-1.306797e-03	1.291010e-01	6.439207e-01	1.981280e+00	2.781935e+04	1.112102e+04	3.000857e+02	8.607656e-02	4.646747e-02	1.846322e-05	0.000000e+00	0.000000e+00	0.000000e+00	0.000000e+00	
1.002614e+00	-9.225288e-04	1.290584e-01	4.396442e-01	1.641832e+00	2.780855e+04	1.111894e+04	3.001287e+02	6.627603e-02	3.792078e-02	1.846525e-05	0.000000e+00	0.000000e+00	0.000000e+00	0.000000e+00	
1.002286e+00	-1.618388e-03	1.289481e-01	8.197055e-01	1.946472e+00	2.778665e+04	1.110774e+04	3.000828e+02	-4.074941e-02	4.716454e-02	1.846308e-05	0.000000e+00	0.000000e+00	0.000000e+00	0.000000e+00	
1.001800e+00	-1.545581e-03	1.289091e-01	7.716174e-01	2.501059e+00	2.778071e+04	1.110166e+04	3.000091e+02	-9.890100e-02	5.847462e-02	1.845959e-05	0.000000e+00	0.000000e+00	0.000000e+00	0.000000e+00	
1.002460e+00	-2.011628e-03	1.289574e-01	1.013037e+00	1.874616e+00	2.778929e+04	1.110867e+04	3.000864e+02	-3.185546e-02	4.758065e-02	1.846325e-05	0.000000e+00	0.000000e+00	0.000000e+00	0.000000e+00	
1.002670e+00	-2.508766e-03	1.289604e-01	1.303521e+00	1.809898e+00	2.779145e+04	1.110887e+04	3.000846e+02	-3.000809e-02	4.980408e-02	1.846316e-05	0.000000e+00	0.000000e+00	0.000000e+00	0.000000e+00	
1.002756e+00	-1.470278e-03	1.289008e-01	8.347745e-01	1.670586e+00	2.777537e+04	1.110474e+04	3.001116e+02	-6.947489e-02	4.171804e-02	1.846444e-05	0.000000e+00	0.000000e+00	0.000000e+00	0.000000e+00	
1.003178e+00	-1.059373e-03	1.289592e-01	6.795879e-01	1.524684e+00	2.778678e+04	1.111039e+04	3.001286e+02	-1.546256e-02	3.727132e-02	1.846525e-05	0.000000e+00	0.000000e+00	0.000000e+00	0.000000e+00	
1.003060e+00	-2.017037e-03	1.289616e-01	1.097836e+00	1.657123e+00	2.778967e+04	1.110974e+04	3.001054e+02	-2.165788e-02	4.438373e-02	1.846415e-05	0.000000e+00	0.000000e+00	0.000000e+00	0.000000e+00	
1.003132e+00	-6.618916e-04	1.289311e-01	3.051270e-01	1.484267e+00	2.777971e+04	1.110832e+04	3.001382e+02	-3.520068e-02	3.384021e-02	1.846570e-05	0.000000e+00	0.000000e+00	0.000000e+00	0.000000e+00	
1.002160e+00	-9.640900e-04	1.288469e-01	4.160800e-01	1.930524e+00	2.776464e+04	1.109980e+04	3.001039e+02	-1.166224e-01	4.413431e-02	1.846408e-05	0.000000e+00	0.000000e+00	0.000000e+00	0.000000e+00	
1.001764e+00	-1.166521e-03	1.287900e-01	5.279010e-01	2.553379e+00	2.775508e+04	1.109147e+04	3.000111e+02	-1.961905e-01	5.830480e-02	1.845969e-05	0.000000e+00	0.000000e+00	0.000000e+00	0.000000e+00	
1.002646e+00	-3.658183e-04	1.290674e-01	-4.536415e-01	1.364489e+00	2.780831e+04	1.112012e+04	3.001397e+02	7.751513e-02	3.207809e-02	1.846577e-05	0.000000e+00	0.000000e+00	0.000000e+00	0.000000e+00	
1.002148e+00	-6.246342e-04	1.290376e-01	-1.996600e-01	1.782723e+00	2.780511e+04	1.111706e+04	3.001262e+02	4.825700e-02	4.002889e-02	1.846513e-05	0.000000e+00	0.000000e+00	0.000000e+00	0.000000e+00	
1.001394e+00	-1.369577e-03	1.290312e-01	7.799109e-01	3.626575e+00	2.781407e+04	1.110430e+04	2.997967e+02	-7.364087e-02	8.282418e-02	1.844954e-05	0.000000e+00	0.000000e+00	0.000000e+00	0.000000e+00	
1.001934e+00	-1.964953e-03	1.288919e-01	9.976001e-01	2.296113e+00	2.777697e+04	1.110106e+04	3.000332e+02	-1.045492e-01	5.593485e-02	1.846073e-05	0.000000e+00	0.000000e+00	0.000000e+00	0.000000e+00	
1.001492e+00	-1.788105e-03	1.289802e-01	9.902905e-01	2.993825e+00	2.779964e+04	1.110444e+04	2.999188e+02	-7.234518e-02	7.042055e-02	1.845532e-05	0.000000e+00	0.000000e+00	0.000000e+00	0.000000e+00	
1.002103e+00	-2.401282e-03	1.288528e-01	1.301720e+00	2.089861e+00	2.776929e+04	1.109831e+04	3.000498e+02	-1.308776e-01	5.502606e-02	1.846152e-05	0.000000e+00	0.000000e+00	0.000000e+00	0.000000e+00	
1.002278e+00	-2.891273e-03	1.289119e-01	1.594570e+00	1.932061e+00	2.778335e+04	1.110360e+04	3.000553e+02	-8.030352e-02	5.596057e-02	1.846178e-05	0.000000e+00	0.000000e+00	0.000000e+00	0.000000e+00	
1.002895e+00	-3.030157e-03	1.289513e-01	1.625971e+00	1.743221e+00	2.779159e+04	1.110782e+04	3.000777e+02	-3.997741e-02	5.323317e-02	1.846284e-05	0.000000e+00	0.000000e+00	0.000000e+00	0.000000e+00	
1.003314e+00	-2.575882e-03	1.289247e-01	1.392897e+00	1.664689e+00	2.778376e+04	1.110619e+04	3.000955e+02	-5.554492e-02	4.847949e-02	1.846368e-05	0.000000e+00	0.000000e+00	0.000000e+00	0.000000e+00	
1.003363e+00	-1.561107e-03	1.290206e-01	9.310317e-01	1.519316e+00	2.780070e+04	1.111536e+04	3.001199e+02	3.202801e-02	3.976731e-02	1.846483e-05	0.000000e+00	0.000000e+00	0.000000e+00	0.000000e+00	
1.003714e+00	-7.870788e-04	1.290539e-01	4.807242e-01	1.430828e+00	2.780579e+04	1.111878e+04	3.001350e+02	6.474702e-02	3.367700e-02	1.846555e-05	0.000000e+00	0.000000e+00	0.000000e+00	0.000000e+00	
1.003715e+00	-2.078212e-03	1.289586e-01	1.212748e+00	1.557450e+00	2.778911e+04	1.110960e+04	3.001086e+02	-2.300013e-02	4.407515e-02	1.846430e-05	0.000000e+00	0.000000e+00	0.000000e+00	0.000000e+00	
1.003192e+00	-1.396905e-04	1.288637e-01	-3.126701e-01	1.265959e+00	2.776262e+04	1.110241e+04	3.001351e+02	-9.171979e-02	2.913664e-02	1.846555e-05	0.000000e+00	0.000000e+00	0.000000e+00	0.000000e+00	
1.002810e+00	2.103601e-04	1.291496e-01	-1.026734e+00	9.518040e-01	2.782195e+04	1.112575e+04	3.001003e+02	1.312681e-01	3.121515e-02	1.846391e-05	0.000000e+00	0.000000e+00	0.000000e+00	0.000000e+00	
1.001749e+00	-8.200331e-04	1.294263e-01	-3.222079e-01	2.379467e+00	2.789195e+04	1.114787e+04	3.000543e+02	3.426479e-01	5.342619e-02	1.846173e-05	0.000000e+00	0.000000e+00	0.000000e+00	0.000000e+00	
1.001385e+00	-1.008269e-03	1.292445e-01	-1.300416e-01	3.747874e+00	2.786090e+04	1.112260e+04	2.997950e+02	1.011703e-01	8.359360e-02	1.844946e-05	0.000000e+00	0.000000e+00	0.000000e+00	0.000000e+00	
1.002358e+00	5.644095e-04	1.284947e-01	-4.113251e-01	9.837011e-01	2.767799e+04	1.106942e+04	3.001029e+02	-4.068430e-01	2.389371e-02	1.846403e-05	0.000000e+00	0.000000e+00	0.000000e+00	0.000000e+00	
1.002274e+00	7.625842e-05	1.287432e-01	-1.137816e+00	9.607267e-01	2.773675e+04	1.109126e+04	3.001144e+02	-1.982644e-01	3.330636e-02	1.846458e-05	0.000000e+00	0.000000e+00	0.000000e+00	0.000000e+00	
1.002184e+00	-3.163119e-04	1.286031e-01	-9.596948e-01	1.302604e+00	2.771004e+04	1.107995e+04	3.001349e+02	-3.063256e-01	3.622505e-02	1.846554e-05	0.000000e+00	0.000000e+00	0.000000e+00	0.000000e+00	
1.001749e+00	-4.556043e-04	1.293860e-01	-1.508686e+00	1.738763e+00	2.788276e+04	1.114491e+04	3.000681e+02	3.143900e-01	5.123522e-02	1.846238e-05	0.000000e+00	0.000000e+00	0.000000e+00	0.000000e+00	
1.001040e+00	-1.170968e-03	1.283836e-01	6.722886e-01	5.151133e+00	2.768790e+04	1.103312e+04	2.993774e+02	-7.537122e-01	1.166547e-01	1.842969e-05	0.000000e+00	0.000000e+00	0.000000e+00	0.000000e+00	
1.003566e+00	-3.221206e-03	1.289692e-01	1.669290e+00	1.644873e+00	2.779568e+04	1.110975e+04	3.000882e+02	-2.152325e-02	5.232525e-02	1.846333e-05	0.000000e+00	0.000000e+00	0.000000e+00	0.000000e+00	
1.001093e+00	-1.601655e-03	1.290741e-01	1.447953e+00	4.480541e+00	2.783230e+04	1.109856e+04	2.995422e+02	-1.284496e-01	1.051438e-01	1.843749e-05	0.000000e+00	0.000000e+00	0.000000e+00	0.000000e+00	
1.000726e+00	-1.408054e-03	1.279194e-01	2.339271e+00	6.440019e+00	2.760932e+04	1.097033e+04	2.987538e+02	-1.353608e+00	1.545814e-01	1.840014e-05	0.000000e+00	0.000000e+00	0.000000e+00	0.000000e+00	
1.001583e+00	-2.255303e-03	1.290955e-01	1.258308e+00	2.623834e+00	2.782401e+04	1.111649e+04	2.999761e+02	4.278556e-02	6.492067e-02	1.845803e-05	0.000000e+00	0.000000e+00	0.000000e+00	0.000000e+00	
1.001140e+00	-2.075129e-03	1.281782e-01	1.677103e+00	3.361348e+00	2.763227e+04	1.103089e+04	2.997966e+02	-7.749993e-01	8.443209e-02	1.844954e-05	0.000000e+00	0.000000e+00	0.000000e+00	0.000000e+00	
1.001717e+00	-2.773739e-03	1.289126e-01	1.669078e+00	2.231502e+00	2.778502e+04	1.110196e+04	3.000093e+02	-9.597990e-02	6.225453e-02	1.845960e-05	0.000000e+00	0.000000e+00	0.000000e+00	0.000000e+00	
1.001918e+00	-3.276414e-03	1.289367e-01	1.889920e+00	1.961708e+00	2.779094e+04	1.110487e+04	3.000317e+02	-6.821035e-02	6.084091e-02	1.846066e-05	0.000000e+00	0.000000e+00	0.000000e+00	0.000000e+00	
1.002506e+00	-3.459269e-03	1.289683e-01	1.887242e+00	1.768921e+00	2.779732e+04	1.110855e+04	3.000579e+02	-3.299114e-02	5.775686e-02	1.846190e-05	0.000000e+00	0.000000e+00	0.000000e+00	0.000000e+00	
1.003372e+00	-3.642205e-03	1.289608e-01	1.930846e+00	1.632173e+00	2.779611e+04	1.110853e+04	3.000746e+02	-3.323033e-02	5.645502e-02	1.846269e-05	0.000000e+00	0.000000e+00	0.000000e+00	0.000000e+00	
1.004030e+00	-2.692834e-03	1.289447e-01	1.491719e+00	1.574020e+00	2.778863e+04	1.110816e+04	3.001019e+02	-3.678575e-02	4.842725e-02	1.846399e-05	0.000000e+00	0.000000e+00	0.000000e+00	0.000000e+00	
1.003850e+00	-4.605432e-05	1.290385e-01	-2.573717e-01	1.313965e+00	2.779956e+04	1.111705e+04	3.001239e+02	4.815323e-02	2.987727e-02	1.846502e-05	0.000000e+00	0.000000e+00	0.000000e+00	0.000000e+00	
1.004046e+00	-1.469130e-03	1.288858e-01	9.790412e-01	1.473878e+00	2.777145e+04	1.110372e+04	3.001193e+02	-7.916125e-02	3.953024e-02	1.846481e-05	0.000000e+00	0.000000e+00	0.000000e+00	0.000000e+00	
1.004436e+00	-6.805759e-04	1.289478e-01	5.010120e-01	1.419756e+00	2.778251e+04	1.110949e+04	3.001308e+02	-2.405416e-02	3.361869e-02	1.846535e-05	0.000000e+00	0.000000e+00	0.000000e+00	0.000000e+00	
1.004468e+00	-2.079603e-03	1.289963e-01	1.275372e+00	1.510207e+00	2.779746e+04	1.111293e+04	3.001107e+02	8.788842e-03	4.412364e-02	1.846440e-05	0.000000e+00	0.000000e+00	0.000000e+00	0.000000e+00	
1.003387e+00	4.291430e-04	1.289312e-01	-8.409015e-01	1.099291e+00	2.777333e+04	1.110636e+04	3.000848e+02	-5.393062e-02	3.091138e-02	1.846318e-05	0.000000e+00	0.000000e+00	0.000000e+00	0.000000e+00	
1.002904e+00	7.765143e-04	1.290963e-01	-5.120516e-01	1.028788e+00	2.780494e+04	1.111993e+04	3.000672e+02	7.568947e-02	2.563387e-02	1.846234e-05	0.000000e+00	0.000000e+00	0.000000e+00	0.000000e+00	
1.004069e+00	6.394126e-04	1.289665e-01	-8.798147e-01	1.131143e+00	2.778029e+04	1.110893e+04	3.000722e+02	-2.940270e-02	3.199742e-02	1.846258e-05	0.000000e+00	0.000000e+00	0.000000e+00	0.000000e+00	
1.002429e+00	1.072437e-03	1.293466e-01	1.563267e+00	2.422001e+00	2.786678e+04	1.113386e+04	2.998617e+02	2.088169e-01	6.419973e-02	1.845262e-05	0.000000e+00	0.000000e+00	0.000000e+00	0.000000e+00	
1.001388e+00	-6.568101e-04	1.279313e-01	-1.312000e+00	2.582066e+00	2.757310e+04	1.101613e+04	2.999732e+02	-9.160761e-01	6.520381e-02	1.845790e-05	0.000000e+00	0.000000e+00	0.000000e+00	0.000000e+00	
1.001053e+00	-8.540349e-04	1.286427e-01	-1.903441e+00	4.679234e+00	2.774307e+04	1.105756e+04	2.994362e+02	-5.202418e-01	1.131983e-01	1.843247e-05	0.000000e+00	0.000000e+00	0.000000e+00	0.000000e+00	
1.001942e+00	8.113031e-04	1.296819e-01	2.189084e+00	3.389947e+00	2.795178e+04	1.115560e+04	2.996704e+02	4.164822e-01	8.966607e-02	1.844356e-05	0.000000e+00	0.000000e+00	0.000000e+00	0.000000e+00	
1.001893e+00	3.551355e-04	1.291132e-01	-2.362432e-01	1.511493e+00	2.781508e+04	1.112241e+04	3.000947e+02	9.936002e-02	3.411917e-02	1.846365e-05	0.000000e+00	0.000000e+00	0.000000e+00	0.000000e+00	
1.001818e+00	-5.642743e-05	1.296448e-01	-1.737095e+00	1.168255e+00	2.793518e+04	1.116731e+04	3.000709e+02	5.283900e-01	4.649820e-02	1.846252e-05	0.000000e+00	0.000000e+00	0.000000e+00	0.000000e+00	
1.001455e+00	-2.672669e-04	1.280638e-01	-1.920633e+00	1.746480e+00	2.759856e+04	1.102890e+04	3.000102e+02	-7.940380e-01	5.837879e-02	1.845964e-05	0.000000e+00	0.000000e+00	0.000000e+00	0.000000e+00	
1.000704e+00	-1.001004e-03	1.296079e-01	-1.561313e+00	7.355937e+00	2.798040e+04	1.110490e+04	2.984788e+02	-6.791524e-02	1.675212e-01	1.838709e-05	0.000000e+00	0.000000e+00	0.000000e+00	0.000000e+00	
1.000349e+00	-1.278542e-03	1.283719e-01	2.397620e+00	9.802102e+00	2.776362e+04	1.094680e+04	2.970623e+02	-1.578438e+00	2.275071e-01	1.831983e-05	0.000000e+00	0.000000e+00	0.000000e+00	0.000000e+00	
3.124498e-03	-5.613935e-02	1.246606e-01	3.403238e+00	-1.149599e+01	2.706202e+04	1.059420e+04	2.960529e+02	-4.947257e+00	2.788214e-01	1.827179e-05	0.000000e+00	0.000000e+00	0.000000e+00	0.000000e+00	
2.537646e-03	-5.398757e-02	1.246294e-01	3.007696e+00	-1.162552e+01	2.705628e+04	1.059111e+04	2.960405e+02	-4.976775e+00	2.793419e-01	1.827121e-05	0.000000e+00	0.000000e+00	0.000000e+00	0.000000e+00	
2.003081e-03	-5.182751e-02	1.248766e-01	2.588296e+00	-1.161978e+01	2.710727e+04	1.061594e+04	2.961472e+02	-4.739557e+00	2.763312e-01	1.827629e-05	0.000000e+00	0.000000e+00	0.000000e+00	0.000000e+00	
1.004414e+00	-3.691600e-03	1.289606e-01	1.882284e+00	1.552311e+00	2.779572e+04	1.110906e+04	3.000893e+02	-2.819405e-02	5.447842e-02	1.846339e-05	0.000000e+00	0.000000e+00	0.000000e+00	0.000000e+00	
1.000730e+00	-1.898936e-03	1.293935e-01	2.338107e+00	4.739262e+00	2.790813e+04	1.112008e+04	2.993821e+02	7.717170e-02	1.177445e-01	1.842991e-05	0.000000e+00	0.000000e+00	0.000000e+00	0.000000e+00	
1.000388e+00	-1.645980e-03	1.273302e-01	4.860276e+00	5.938371e+00	2.749642e+04	1.090607e+04	2.983785e+02	-1.967533e+00	1.740380e-01	1.838233e-05	0.000000e+00	0.000000e+00	0.000000e+00	0.000000e+00	
1.001191e+00	-2.543361e-03	1.288551e-01	1.885821e+00	2.822642e+00	2.777679e+04	1.109283e+04	2.998964e+02	-1.832098e-01	7.588548e-02	1.845426e-05	0.000000e+00	0.000000e+00	0.000000e+00	0.000000e+00	
1.000748e+00	-2.358514e-03	1.292229e-01	2.090008e+00	3.402109e+00	2.786037e+04	1.111947e+04	2.997610e+02	7.133697e-02	8.902297e-02	1.844785e-05	0.000000e+00	0.000000e+00	0.000000e+00	0.000000e+00	
1.001333e+00	-3.190455e-03	1.288931e-01	2.067226e+00	2.280985e+00	2.778405e+04	1.109891e+04	2.999722e+02	-1.250952e-01	6.878608e-02	1.845785e-05	0.000000e+00	0.000000e+00	0.000000e+00	0.000000e+00	
1.001600e+00	-3.727340e-03	1.288529e-01	2.138980e+00	1.985624e+00	2.777509e+04	1.109682e+04	3.000092e+02	-1.451451e-01	6.523144e-02	1.845960e-05	0.000000e+00	0.000000e+00	0.000000e+00	0.000000e+00	
1.000046e+00	-1.490079e-03	1.294707e-01	6.387715e+00	5.604572e+00	2.796920e+04	1.107613e+04	2.980208e+02	-3.428176e-01	1.896563e-01	1.836536e-05	0.000000e+00	0.000000e+00	0.000000e+00	0.000000e+00	
9.997621e-01	-1.104660e-03	1.310321e-01	7.188136e+00	2.262452e+00	2.828590e+04	1.122768e+04	2.984988e+02	1.105163e+00	1.660467e-01	1.838804e-05	0.000000e+00	0.000000e+00	0.000000e+00	0.000000e+00	
1.002224e+00	-3.824204e-03	1.289290e-01	2.127807e+00	1.814750e+00	2.779101e+04	1.110427e+04	3.000335e+02	-7.391492e-02	6.246596e-02	1.846075e-05	0.000000e+00	0.000000e+00	0.000000e+00	0.000000e+00	
1.002879e+00	-4.154842e-03	1.289283e-01	2.177733e+00	1.661259e+00	2.779122e+04	1.110485e+04	3.000507e+02	-6.839343e-02	6.117906e-02	1.846156e-05	0.000000e+00	0.000000e+00	0.000000e+00	0.000000e+00	
1.003904e+00	-4.439259e-03	1.289612e-01	2.260001e+00	1.550001e+00	2.779957e+04	1.110818e+04	3.000643e+02	-3.655450e-02	6.119389e-02	1.846220e-05	0.000000e+00	0.000000e+00	0.000000e+00	0.000000e+00	
1.004969e+00	-2.916767e-03	1.289722e-01	1.584248e+00	1.502324e+00	2.779505e+04	1.111063e+04	3.001048e+02	-1.318337e-02	4.874534e-02	1.846412e-05	0.000000e+00	0.000000e+00	0.000000e+00	0.000000e+00	
1.004619e+00	9.933183e-05	1.289271e-01	-2.471763e-01	1.301370e+00	2.777513e+04	1.110733e+04	3.001205e+02	-4.467963e-02	2.958390e-02	1.846487e-05	0.000000e+00	0.000000e+00	0.000000e+00	0.000000e+00	
1.004845e+00	-1.375319e-03	1.290207e-01	9.742499e-01	1.466347e+00	2.780043e+04	1.111537e+04	3.001199e+02	3.212291e-02	3.928969e-02	1.846483e-05	0.000000e+00	0.000000e+00	0.000000e+00	0.000000e+00	
1.005257e+00	-5.495143e-04	1.289615e-01	4.515616e-01	1.403347e+00	2.778515e+04	1.111069e+04	3.001313e+02	-1.258410e-02	3.291504e-02	1.846538e-05	0.000000e+00	0.000000e+00	0.000000e+00	0.000000e+00	
1.005375e+00	-2.098660e-03	1.289475e-01	1.310460e+00	1.456342e+00	2.778684e+04	1.110878e+04	3.001124e+02	-3.080831e-02	4.374841e-02	1.846448e-05	0.000000e+00	0.000000e+00	0.000000e+00	0.000000e+00	
1.005570e+00	-3.729486e-03	1.289590e-01	1.896933e+00	1.469868e+00	2.779543e+04	1.110924e+04	3.000981e+02	-2.641938e-02	5.358418e-02	1.846380e-05	0.000000e+00	0.000000e+00	0.000000e+00	0.000000e+00	
1.004886e+00	9.323975e-04	1.288893e-01	-7.535236e-01	1.074188e+00	2.776326e+04	1.110263e+04	3.000818e+02	-8.955985e-02	2.931505e-02	1.846303e-05	0.000000e+00	0.000000e+00	0.000000e+00	0.000000e+00	
1.003505e+00	1.071563e-03	1.286800e-01	-4.533155e-01	1.231821e+00	2.771427e+04	1.108303e+04	3.000391e+02	-2.768544e-01	2.937505e-02	1.846101e-05	0.000000e+00	0.000000e+00	0.000000e+00	0.000000e+00	
1.002954e+00	1.413673e-03	1.290905e-01	1.030334e+00	1.929132e+00	2.780417e+04	1.111426e+04	2.999276e+02	2.149988e-02	4.879834e-02	1.845574e-05	0.000000e+00	0.000000e+00	0.000000e+00	0.000000e+00	
1.004270e+00	1.549023e-03	1.291390e-01	-3.245160e-01	1.238985e+00	2.781306e+04	1.112268e+04	3.000422e+02	1.019972e-01	2.856121e-02	1.846116e-05	0.000000e+00	0.000000e+00	0.000000e+00	0.000000e+00	
1.002671e+00	1.725162e-03	1.290277e-01	4.197563e+00	4.208510e+00	2.783011e+04	1.107728e+04	2.990754e+02	-3.317838e-01	1.328790e-01	1.841538e-05	0.000000e+00	0.000000e+00	0.000000e+00	0.000000e+00	
1.001996e+00	1.344546e-03	1.299151e-01	5.040402e+00	5.853277e+00	2.805294e+04	1.112932e+04	2.984278e+02	1.654171e-01	1.716869e-01	1.838468e-05	0.000000e+00	0.000000e+00	0.000000e+00	0.000000e+00	
1.001122e+00	-4.546159e-04	1.319619e-01	-4.054391e+00	2.799800e+00	2.845703e+04	1.134602e+04	2.995196e+02	2.235779e+00	1.076186e-01	1.843642e-05	0.000000e+00	0.000000e+00	0.000000e+00	0.000000e+00	
1.000804e+00	-6.174794e-04	1.254195e-01	-4.005931e+00	5.191696e+00	2.706713e+04	1.075828e+04	2.988190e+02	-3.379576e+00	1.508768e-01	1.840323e-05	0.000000e+00	0.000000e+00	0.000000e+00	0.000000e+00	
1.001561e+00	1.054785e-03	1.295055e-01	6.011981e+00	7.542110e+00	2.800573e+04	1.105863e+04	2.974700e+02	-5.100083e-01	2.154004e-01	1.833920e-05	0.000000e+00	0.000000e+00	0.000000e+00	0.000000e+00	
1.001507e+00	6.012033e-04	1.291077e-01	3.933706e+00	5.020440e+00	2.785787e+04	1.108013e+04	2.989669e+02	-3.045285e-01	1.425187e-01	1.841024e-05	0.000000e+00	0.000000e+00	0.000000e+00	0.000000e+00	
1.001484e+00	1.475576e-04	1.279221e-01	2.469847e-01	1.937368e+00	2.756149e+04	1.101863e+04	3.000631e+02	-8.921242e-01	4.396552e-02	1.846215e-05	0.000000e+00	0.000000e+00	0.000000e+00	0.000000e+00	
1.001149e+00	-4.660497e-05	1.287152e-01	-4.297728e-01	2.617162e+00	2.773539e+04	1.108323e+04	2.999624e+02	-2.749692e-01	5.934670e-02	1.845739e-05	0.000000e+00	0.000000e+00	0.000000e+00	0.000000e+00	
1.000463e+00	-6.916286e-04	1.334930e-01	-9.925355e+00	5.989937e+00	2.889734e+04	1.135759e+04	2.963863e+02	2.346336e+00	2.516231e-01	1.828767e-05	0.000000e+00	0.000000e+00	0.000000e+00	0.000000e+00	
1.000000e+00	-1.000000e-03	1.134270e-01	-1.537208e+00	6.089501e+00	2.447909e+04	9.722084e+03	2.985885e+02	-1.327958e+01	1.598432e-01	1.839230e-05	0.000000e+00	0.000000e+00	0.000000e+00	0.000000e+00	
4.487486e-03	-6.053301e-02	1.247046e-01	3.829439e+00	-1.144437e+01	2.707330e+04	1.059575e+04	2.959918e+02	-4.932439e+00	2.805864e-01	1.826888e-05	0.000000e+00	0.000000e+00	0.000000e+00	0.000000e+00	
6.075662e-03	-6.494743e-02	1.244952e-01	4.385249e+00	-1.139317e+01	2.703186e+04	1.057332e+04	2.958620e+02	-5.146711e+00	2.843793e-01	1.826270e-05	0.000000e+00	0.000000e+00	0.000000e+00	0.000000e+00	
5.983310e-05	-5.557646e-02	1.250294e-01	3.142519e+00	-1.131942e+01	2.713752e+04	1.063425e+04	2.962956e+02	-4.564562e+00	2.722849e-01	1.828335e-05	0.000000e+00	0.000000e+00	0.000000e+00	0.000000e+00	
-4.178308e-05	-5.937732e-02	1.250679e-01	3.574445e+00	-1.116267e+01	2.714522e+04	1.063839e+04	2.963198e+02	-4.524977e+00	2.715750e-01	1.828450e-05	0.000000e+00	0.000000e+00	0.000000e+00	0.000000e+00	
-3.932288e-04	-5.316524e-02	1.250741e-01	2.778389e+00	-1.135221e+01	2.714578e+04	1.063989e+04	2.963468e+02	-4.510648e+00	2.707674e-01	1.828579e-05	0.000000e+00	0.000000e+00	0.000000e+00	0.000000e+00	
-2.533307e-03	-5.466479e-02	1.253092e-01	2.925408e+00	-1.114239e+01	2.719336e+04	1.066553e+04	2.965034e+02	-4.265738e+00	2.663217e-01	1.829324e-05	0.000000e+00	0.000000e+00	0.000000e+00	0.000000e+00	
1.078855e-03	-4.737133e-02	1.249036e-01	2.067489e+00	-1.156353e+01	2.710975e+04	1.062295e+04	2.962786e+02	-4.672559e+00	2.725519e-01	1.828254e-05	0.000000e+00	0.000000e+00	0.000000e+00	0.000000e+00	
-1.991311e-03	-4.959650e-02	1.252785e-01	2.315242e+00	-1.123384e+01	2.718497e+04	1.066396e+04	2.965327e+02	-4.280701e+00	2.652160e-01	1.829463e-05	0.000000e+00	0.000000e+00	0.000000e+00	0.000000e+00	
1.005017e+00	-4.610986e-03	1.289823e-01	2.236311e+00	1.462002e+00	2.780411e+04	1.111058e+04	3.000799e+02	-1.366649e-02	5.964956e-02	1.846294e-05	0.000000e+00	0.000000e+00	0.000000e+00	0.000000e+00	
1.001529e+00	-4.191643e-03	1.289305e-01	2.391177e+00	1.892426e+00	2.779406e+04	1.110320e+04	3.000011e+02	-8.414220e-02	6.811649e-02	1.845921e-05	0.000000e+00	0.000000e+00	0.000000e+00	0.000000e+00	
1.000301e+00	-2.225038e-03	1.280501e-01	3.289453e+00	3.885849e+00	2.761837e+04	1.100686e+04	2.994430e+02	-1.004564e+00	1.146132e-01	1.843279e-05	0.000000e+00	0.000000e+00	0.000000e+00	0.000000e+00	
1.000759e+00	-3.044094e-03	1.289784e-01	2.436165e+00	2.792567e+00	2.780757e+04	1.110173e+04	2.998501e+02	-9.815850e-02	8.276946e-02	1.845207e-05	0.000000e+00	0.000000e+00	0.000000e+00	0.000000e+00	
1.001002e+00	-3.669886e-03	1.288652e-01	2.340874e+00	2.154901e+00	2.778051e+04	1.109649e+04	2.999718e+02	-1.482269e-01	7.111090e-02	1.845783e-05	0.000000e+00	0.000000e+00	0.000000e+00	0.000000e+00	
9.996110e-01	-1.963754e-03	1.271967e-01	4.338165e+00	2.669944e+00	2.743402e+04	1.093281e+04	2.994239e+02	-1.712088e+00	1.154480e-01	1.843189e-05	0.000000e+00	0.000000e+00	0.000000e+00	0.000000e+00	
9.990485e-01	-1.418584e-03	1.277529e-01	4.583046e+00	2.242447e+00	2.755330e+04	1.098056e+04	2.994222e+02	-1.255841e+00	1.151329e-01	1.843181e-05	0.000000e+00	0.000000e+00	0.000000e+00	0.000000e+00	
1.002248e+00	-4.528091e-03	1.289915e-01	2.380677e+00	1.691564e+00	2.780686e+04	1.110952e+04	3.000299e+02	-2.376857e-02	6.520143e-02	1.846058e-05	0.000000e+00	0.000000e+00	0.000000e+00	0.000000e+00	
1.002922e+00	-4.936385e-03	1.289720e-01	2.415110e+00	1.598734e+00	2.780332e+04	1.110832e+04	3.000427e+02	-3.523356e-02	6.467128e-02	1.846118e-05	0.000000e+00	0.000000e+00	0.000000e+00	0.000000e+00	
1.001712e+00	-5.105997e-03	1.288455e-01	2.596711e+00	1.724849e+00	2.777771e+04	1.109600e+04	3.000043e+02	-1.529516e-01	6.967979e-02	1.845936e-05	0.000000e+00	0.000000e+00	0.000000e+00	0.000000e+00	
1.004682e+00	-5.684677e-03	1.289871e-01	2.538719e+00	1.431512e+00	2.780839e+04	1.111019e+04	3.000581e+02	-1.739703e-02	6.506784e-02	1.846191e-05	0.000000e+00	0.000000e+00	0.000000e+00	0.000000e+00	
1.003648e+00	-5.466486e-03	1.289834e-01	2.561291e+00	1.511718e+00	2.780780e+04	1.110940e+04	3.000457e+02	-2.486453e-02	6.640258e-02	1.846132e-05	0.000000e+00	0.000000e+00	0.000000e+00	0.000000e+00	
1.006034e+00	-2.803291e-03	1.289740e-01	1.574012e+00	1.436290e+00	2.779502e+04	1.111097e+04	3.001097e+02	-9.940204e-03	4.757274e-02	1.846435e-05	0.000000e+00	0.000000e+00	0.000000e+00	0.000000e+00	
1.005492e+00	2.771158e-04	1.290352e-01	-2.008365e-01	1.279190e+00	2.779827e+04	1.111671e+04	3.001225e+02	4.494269e-02	2.889459e-02	1.846496e-05	0.000000e+00	0.000000e+00	0.000000e+00	0.000000e+00	
1.005748e+00	-1.260523e-03	1.289625e-01	9.324731e-01	1.423592e+00	2.778743e+04	1.111048e+04	3.001233e+02	-1.457819e-02	3.799673e-02	1.846500e-05	0.000000e+00	0.000000e+00	0.000000e+00	0.000000e+00	
1.006185e+00	-3.918901e-04	1.289864e-01	4.459166e-01	1.369207e+00	2.779027e+04	1.111289e+04	3.001328e+02	8.449249e-03	3.214474e-02	1.846545e-05	0.000000e+00	0.000000e+00	0.000000e+00	0.000000e+00	
1.006336e+00	-1.853381e-03	1.289995e-01	1.244606e+00	1.406525e+00	2.779728e+04	1.111344e+04	3.001172e+02	1.373022e-02	4.192202e-02	1.846471e-05	0.000000e+00	0.000000e+00	0.000000e+00	0.000000e+00	
1.006726e+00	-3.677761e-03	1.289755e-01	1.846755e+00	1.393779e+00	2.779810e+04	1.111094e+04	3.001053e+02	-1.022200e-02	5.165480e-02	1.846415e-05	0.000000e+00	0.000000e+00	0.000000e+00	0.000000e+00	
1.006230e+00	-4.741001e-03	1.289980e-01	2.197397e+00	1.388854e+00	2.780706e+04	1.111235e+04	3.000912e+02	3.252372e-03	5.802747e-02	1.846348e-05	0.000000e+00	0.000000e+00	0.000000e+00	0.000000e+00	
1.005841e+00	1.019190e-03	1.289719e-01	-6.220240e-01	1.075313e+00	2.778122e+04	1.111009e+04	3.000909e+02	-1.827630e-02	2.773590e-02	1.846346e-05	0.000000e+00	0.000000e+00	0.000000e+00	0.000000e+00	
1.005255e+00	1.785333e-03	1.288864e-01	-2.429680e-01	1.058414e+00	2.775852e+04	1.110158e+04	3.000599e+02	-9.963560e-02	2.426316e-02	1.846200e-05	0.000000e+00	0.000000e+00	0.000000e+00	0.000000e+00	
1.003548e+00	2.069123e-03	1.287087e-01	2.565126e+00	2.621433e+00	2.773470e+04	1.107298e+04	2.997001e+02	-3.728847e-01	8.210879e-02	1.844497e-05	0.000000e+00	0.000000e+00	0.000000e+00	0.000000e+00	
1.004541e+00	2.464749e-03	1.289785e-01	2.148742e+00	2.099496e+00	2.778764e+04	1.110106e+04	2.998316e+02	-1.045619e-01	6.709930e-02	1.845120e-05	0.000000e+00	0.000000e+00	0.000000e+00	0.000000e+00	
1.002113e+00	2.026334e-03	1.305785e-01	7.291718e+00	7.797253e+00	2.826534e+04	1.113158e+04	2.969719e+02	1.869893e-01	2.366519e-01	1.831553e-05	0.000000e+00	0.000000e+00	0.000000e+00	0.000000e+00	
1.002881e+00	2.565114e-03	1.308686e-01	6.898671e+00	6.579591e+00	2.830134e+04	1.118164e+04	2.976463e+02	6.653105e-01	2.106231e-01	1.834758e-05	0.000000e+00	0.000000e+00	0.000000e+00	0.000000e+00	
1.001670e+00	1.576221e-03	1.318875e-01	7.370734e+00	9.115721e+00	2.857506e+04	1.122163e+04	2.964031e+02	1.047354e+00	2.575358e-01	1.828847e-05	0.000000e+00	0.000000e+00	0.000000e+00	0.000000e+00	
1.001201e+00	1.345701e-03	1.313021e-01	7.715995e+00	1.029644e+01	2.848267e+04	1.114090e+04	2.955826e+02	2.760124e-01	2.843210e-01	1.824939e-05	0.000000e+00	0.000000e+00	0.000000e+00	0.000000e+00	
1.000847e+00	-1.979896e-04	1.249706e-01	-1.774371e-01	2.736428e+00	2.692767e+04	1.075903e+04	2.999133e+02	-3.372370e+00	6.320343e-02	1.845506e-05	0.000000e+00	0.000000e+00	0.000000e+00	0.000000e+00	
1.000593e+00	-3.589736e-04	1.263089e-01	-2.653133e+00	4.113728e+00	2.722646e+04	1.085264e+04	2.993173e+02	-2.478004e+00	1.117407e-01	1.842684e-05	0.000000e+00	0.000000e+00	0.000000e+00	0.000000e+00	
1.001124e+00	8.646883e-04	1.326788e-01	6.740370e+00	9.999476e+00	2.874877e+04	1.128030e+04	2.961757e+02	1.607877e+00	2.634452e-01	1.827764e-05	0.000000e+00	0.000000e+00	0.000000e+00	0.000000e+00	
1.001138e+00	3.329669e-04	1.326810e-01	4.522642e+00	7.241917e+00	2.866163e+04	1.135476e+04	2.981258e+02	2.319346e+00	1.859111e-01	1.837035e-05	0.000000e+00	0.000000e+00	0.000000e+00	0.000000e+00	
1.000841e+00	1.520111e-04	1.303601e-01	7.672694e+00	8.941159e+00	2.823283e+04	1.108016e+04	2.960954e+02	-3.042575e-01	2.620041e-01	1.827382e-05	0.000000e+00	0.000000e+00	0.000000e+00	0.000000e+00	
1.000364e+00	-3.371376e-04	1.243180e-01	4.665210e+00	1.635298e+01	2.709581e+04	1.037309e+04	2.906729e+02	-7.059730e+00	4.002231e-01	1.801445e-05	0.000000e+00	0.000000e+00	0.000000e+00	0.000000e+00	
1.000000e+00	0.000000e+00	2.421710e-01	1.937655e+01	1.029946e+02	5.860828e+04	1.437259e+04	2.067489e+02	3.115219e+01	1.501324e+00	1.366593e-05	0.000000e+00	0.000000e+00	0.000000e+00	0.000000e+00	
9.226062e-04	-6.426919e-02	1.250223e-01	4.093080e+00	-1.106930e+01	2.713738e+04	1.063214e+04	2.962536e+02	-4.584730e+00	2.735776e-01	1.828135e-05	0.000000e+00	0.000000e+00	0.000000e+00	0.000000e+00	
7.917903e-03	-6.944731e-02	1.244153e-01	4.915224e+00	-1.130102e+01	2.701751e+04	1.056287e+04	2.957593e+02	-5.246576e+00	2.873079e-01	1.825781e-05	0.000000e+00	0.000000e+00	0.000000e+00	0.000000e+00	
1.006240e-02	-7.410536e-02	1.243066e-01	5.449463e+00	-1.118908e+01	2.699721e+04	1.054968e+04	2.956481e+02	-5.372614e+00	2.904583e-01	1.825251e-05	0.000000e+00	0.000000e+00	0.000000e+00	0.000000e+00	
1.251909e-02	-7.888998e-02	1.241994e-01	5.983715e+00	-1.105307e+01	2.697732e+04	1.053654e+04	2.955348e+02	-5.498150e+00	2.936444e-01	1.824711e-05	0.000000e+00	0.000000e+00	0.000000e+00	0.000000e+00	
1.529738e-02	-8.377022e-02	1.240904e-01	6.522072e+00	-1.087913e+01	2.695684e+04	1.052342e+04	2.954263e+02	-5.623461e+00	2.966585e-01	1.824194e-05	0.000000e+00	0.000000e+00	0.000000e+00	0.000000e+00	
1.843145e-02	-8.874565e-02	1.239934e-01	7.056744e+00	-1.065370e+01	2.693839e+04	1.051195e+04	2.953353e+02	-5.733011e+00	2.991484e-01	1.823760e-05	0.000000e+00	0.000000e+00	0.000000e+00	0.000000e+00	
2.196161e-02	-9.382397e-02	1.239227e-01	7.566132e+00	-1.038126e+01	2.692478e+04	1.050359e+04	2.952686e+02	-5.812949e+00	3.009235e-01	1.823442e-05	0.000000e+00	0.000000e+00	0.000000e+00	0.000000e+00	
2.590787e-02	-9.899620e-02	1.238785e-01	8.046472e+00	-1.008533e+01	2.691655e+04	1.049787e+04	2.952132e+02	-5.867557e+00	3.023722e-01	1.823178e-05	0.000000e+00	0.000000e+00	0.000000e+00	0.000000e+00	
3.032086e-02	-1.042944e-01	1.238350e-01	8.508346e+00	-9.770747e+00	2.690844e+04	1.049227e+04	2.951595e+02	-5.921051e+00	3.037753e-01	1.822922e-05	0.000000e+00	0.000000e+00	0.000000e+00	0.000000e+00	
3.519676e-02	-1.096563e-01	1.237880e-01	8.959027e+00	-9.422031e+00	2.689935e+04	1.048663e+04	2.951126e+02	-5.974952e+00	3.049804e-01	1.822698e-05	0.000000e+00	0.000000e+00	0.000000e+00	0.000000e+00	
4.055945e-02	-1.150545e-01	1.237588e-01	9.387033e+00	-9.035788e+00	2.689356e+04	1.048308e+04	2.950822e+02	-6.008887e+00	3.057197e-01	1.822553e-05	0.000000e+00	0.000000e+00	0.000000e+00	0.000000e+00	
4.640551e-02	-1.204388e-01	1.237498e-01	9.783205e+00	-8.617854e+00	2.689150e+04	1.048189e+04	2.950702e+02	-6.020267e+00	3.059433e-01	1.822496e-05	0.000000e+00	0.000000e+00	0.000000e+00	0.000000e+00	
5.272092e-02	-1.257605e-01	1.237605e-01	1.013954e+01	-8.172294e+00	2.689301e+04	1.048313e+04	2.950797e+02	-6.008378e+00	3.055682e-01	1.822541e-05	0.000000e+00	0.000000e+00	0.000000e+00	0.000000e+00	