TITLE = "Visualization of the volumetric solution"
VARIABLES = "x""y""Conservative_1""Conservative_2""Conservative_3""Conservative_4""Pressure""Temperature""C<sub>p</sub>""Mach""<greek>m</greek>""C<sub>f</sub>_x""C<sub>f</sub>_y""h""y<sup>+</sup>"
ZONE NODES= 5233, ELEMENTS= 10216, DATAPACKING=POINT, ZONETYPE=FEQUADRILATERAL
1.002197e+00	-1.314021e-03	1.291018e-01	7.341994e-01	2.019874e+00	2.782095e+04	1.112122e+04	3.000895e+02	8.805004e-02	4.793634e-02	1.846340e-05	0.000000e+00	0.000000e+00	0.000000e+00	0.000000e+00	
1.002616e+00	-9.311583e-04	1.290586e-01	5.393079e-01	1.665031e+00	2.781027e+04	1.111936e+04	3.001396e+02	7.026577e-02	3.904712e-02	1.846577e-05	0.000000e+00	0.000000e+00	0.000000e+00	0.000000e+00	
1.002285e+00	-1.626023e-03	1.289471e-01	9.073496e-01	1.983988e+00	2.778785e+04	1.110776e+04	3.000856e+02	-4.060957e-02	4.871889e-02	1.846321e-05	0.000000e+00	0.000000e+00	0.000000e+00	0.000000e+00	
1.001799e+00	-1.551484e-03	1.289107e-01	8.615219e-01	2.560694e+00	2.778241e+04	1.110164e+04	3.000050e+02	-9.905527e-02	6.035882e-02	1.845940e-05	0.000000e+00	0.000000e+00	0.000000e+00	0.000000e+00	
1.002458e+00	-2.019946e-03	1.289542e-01	1.104905e+00	1.907481e+00	2.779013e+04	1.110851e+04	3.000894e+02	-3.336705e-02	4.922400e-02	1.846339e-05	0.000000e+00	0.000000e+00	0.000000e+00	0.000000e+00	
1.002665e+00	-2.517837e-03	1.289604e-01	1.402109e+00	1.839252e+00	2.779302e+04	1.110891e+04	3.000860e+02	-2.955160e-02	5.164146e-02	1.846323e-05	0.000000e+00	0.000000e+00	0.000000e+00	0.000000e+00	
1.002755e+00	-1.479621e-03	1.288998e-01	9.257285e-01	1.691050e+00	2.777678e+04	1.110494e+04	3.001196e+02	-6.748754e-02	4.306515e-02	1.846482e-05	0.000000e+00	0.000000e+00	0.000000e+00	0.000000e+00	
1.003179e+00	-1.070288e-03	1.289599e-01	7.760325e-01	1.533058e+00	2.778877e+04	1.111093e+04	3.001416e+02	-1.029615e-02	3.836435e-02	1.846586e-05	0.000000e+00	0.000000e+00	0.000000e+00	0.000000e+00	
1.003058e+00	-2.027618e-03	1.289620e-01	1.193995e+00	1.675230e+00	2.779147e+04	1.111003e+04	3.001122e+02	-1.892545e-02	4.593263e-02	1.846447e-05	0.000000e+00	0.000000e+00	0.000000e+00	0.000000e+00	
1.003135e+00	-6.724790e-04	1.289287e-01	4.068882e-01	1.495909e+00	2.778111e+04	1.110872e+04	3.001543e+02	-3.142820e-02	3.462049e-02	1.846646e-05	0.000000e+00	0.000000e+00	0.000000e+00	0.000000e+00	
1.002161e+00	-9.710369e-04	1.288516e-01	5.168318e-01	1.973447e+00	2.776708e+04	1.110037e+04	3.001084e+02	-1.111734e-01	4.558825e-02	1.846429e-05	0.000000e+00	0.000000e+00	0.000000e+00	0.000000e+00	
1.001764e+00	-1.172161e-03	1.287881e-01	6.266349e-01	2.620597e+00	2.775598e+04	1.109112e+04	3.000060e+02	-1.995939e-01	6.025386e-02	1.845945e-05	0.000000e+00	0.000000e+00	0.000000e+00	0.000000e+00	
1.002650e+00	-3.742996e-04	1.290670e-01	-3.491477e-01	1.395047e+00	2.781012e+04	1.112084e+04	3.001600e+02	8.443383e-02	3.208050e-02	1.846673e-05	0.000000e+00	0.000000e+00	0.000000e+00	0.000000e+00	
1.002150e+00	-6.313475e-04	1.290434e-01	-8.781596e-02	1.830714e+00	2.780802e+04	1.111800e+04	3.001381e+02	5.726612e-02	4.089538e-02	1.846570e-05	0.000000e+00	0.000000e+00	0.000000e+00	0.000000e+00	
1.001393e+00	-1.374074e-03	1.290326e-01	8.842180e-01	3.714605e+00	2.781592e+04	1.110377e+04	2.997790e+02	-7.870289e-02	8.525733e-02	1.844870e-05	0.000000e+00	0.000000e+00	0.000000e+00	0.000000e+00	
1.001931e+00	-1.971393e-03	1.288895e-01	1.088631e+00	2.346497e+00	2.777785e+04	1.110076e+04	3.000306e+02	-1.074959e-01	5.779656e-02	1.846061e-05	0.000000e+00	0.000000e+00	0.000000e+00	0.000000e+00	
1.001490e+00	-1.793033e-03	1.289770e-01	1.086085e+00	3.064792e+00	2.780039e+04	1.110376e+04	2.999082e+02	-7.876719e-02	7.261633e-02	1.845482e-05	0.000000e+00	0.000000e+00	0.000000e+00	0.000000e+00	
1.002099e+00	-2.408317e-03	1.288524e-01	1.397016e+00	2.134830e+00	2.777068e+04	1.109817e+04	3.000469e+02	-1.322283e-01	5.701988e-02	1.846138e-05	0.000000e+00	0.000000e+00	0.000000e+00	0.000000e+00	
1.002273e+00	-2.898856e-03	1.289085e-01	1.692549e+00	1.973356e+00	2.778411e+04	1.110316e+04	3.000511e+02	-8.453976e-02	5.807758e-02	1.846158e-05	0.000000e+00	0.000000e+00	0.000000e+00	0.000000e+00	
1.002888e+00	-3.039965e-03	1.289508e-01	1.727975e+00	1.771730e+00	2.779308e+04	1.110773e+04	3.000764e+02	-4.083105e-02	5.526647e-02	1.846278e-05	0.000000e+00	0.000000e+00	0.000000e+00	0.000000e+00	
1.003309e+00	-2.587399e-03	1.289237e-01	1.496831e+00	1.682754e+00	2.778531e+04	1.110626e+04	3.000995e+02	-5.494002e-02	5.030166e-02	1.846387e-05	0.000000e+00	0.000000e+00	0.000000e+00	0.000000e+00	
1.003363e+00	-1.572854e-03	1.290186e-01	1.027823e+00	1.527407e+00	2.780215e+04	1.111561e+04	3.001312e+02	3.438705e-02	4.108697e-02	1.846537e-05	0.000000e+00	0.000000e+00	0.000000e+00	0.000000e+00	
1.003717e+00	-8.001312e-04	1.290512e-01	5.786327e-01	1.436875e+00	2.780720e+04	1.111916e+04	3.001513e+02	6.835545e-02	3.455991e-02	1.846632e-05	0.000000e+00	0.000000e+00	0.000000e+00	0.000000e+00	
1.003713e+00	-2.091385e-03	1.289588e-01	1.315738e+00	1.567310e+00	2.779111e+04	1.110995e+04	3.001175e+02	-1.967181e-02	4.569182e-02	1.846472e-05	0.000000e+00	0.000000e+00	0.000000e+00	0.000000e+00	
1.003197e+00	-1.503123e-04	1.288595e-01	-2.181386e-01	1.282773e+00	2.776367e+04	1.110284e+04	3.001566e+02	-8.759532e-02	2.907374e-02	1.846657e-05	0.000000e+00	0.000000e+00	0.000000e+00	0.000000e+00	
1.002816e+00	2.015624e-04	1.291415e-01	-9.511980e-01	9.813492e-01	2.782224e+04	1.112600e+04	3.001260e+02	1.337334e-01	3.047203e-02	1.846512e-05	0.000000e+00	0.000000e+00	0.000000e+00	0.000000e+00	
1.001750e+00	-8.254302e-04	1.294364e-01	-2.068306e-01	2.457864e+00	2.789549e+04	1.114880e+04	3.000558e+02	3.514856e-01	5.487619e-02	1.846180e-05	0.000000e+00	0.000000e+00	0.000000e+00	0.000000e+00	
1.001385e+00	-1.012562e-03	1.292540e-01	-1.102857e-02	3.854817e+00	2.786441e+04	1.112277e+04	2.997776e+02	1.028248e-01	8.592372e-02	1.844864e-05	0.000000e+00	0.000000e+00	0.000000e+00	0.000000e+00	
1.002365e+00	5.578138e-04	1.284909e-01	-3.898826e-01	1.003581e+00	2.767932e+04	1.106992e+04	3.001252e+02	-4.020697e-01	2.412701e-02	1.846509e-05	0.000000e+00	0.000000e+00	0.000000e+00	0.000000e+00	
1.002279e+00	6.958129e-05	1.287468e-01	-1.059183e+00	1.007227e+00	2.773958e+04	1.109251e+04	3.001399e+02	-1.862417e-01	3.268822e-02	1.846578e-05	0.000000e+00	0.000000e+00	0.000000e+00	0.000000e+00	
1.002187e+00	-3.229414e-04	1.286092e-01	-8.535571e-01	1.357806e+00	2.771319e+04	1.108128e+04	3.001568e+02	-2.936179e-01	3.590519e-02	1.846658e-05	0.000000e+00	0.000000e+00	0.000000e+00	0.000000e+00	
1.001751e+00	-4.607308e-04	1.293856e-01	-1.393649e+00	1.823012e+00	2.788417e+04	1.114553e+04	3.000855e+02	3.202670e-01	5.107023e-02	1.846321e-05	0.000000e+00	0.000000e+00	0.000000e+00	0.000000e+00	
1.001040e+00	-1.174282e-03	1.283813e-01	8.052202e-01	5.267831e+00	2.768947e+04	1.103155e+04	2.993401e+02	-7.687226e-01	1.196779e-01	1.842792e-05	0.000000e+00	0.000000e+00	0.000000e+00	0.000000e+00	
1.003559e+00	-3.233535e-03	1.289722e-01	1.777691e+00	1.664246e+00	2.779807e+04	1.111003e+04	3.000887e+02	-1.885232e-02	5.436933e-02	1.846336e-05	0.000000e+00	0.000000e+00	0.000000e+00	0.000000e+00	
1.001092e+00	-1.605275e-03	1.290622e-01	1.565187e+00	4.569799e+00	2.783171e+04	1.109653e+04	2.995149e+02	-1.479145e-01	1.078766e-01	1.843620e-05	0.000000e+00	0.000000e+00	0.000000e+00	0.000000e+00	
1.000725e+00	-1.410509e-03	1.279172e-01	2.481646e+00	6.541113e+00	2.761177e+04	1.096818e+04	2.987006e+02	-1.374112e+00	1.578545e-01	1.839761e-05	0.000000e+00	0.000000e+00	0.000000e+00	0.000000e+00	
1.001580e+00	-2.260570e-03	1.290884e-01	1.355193e+00	2.684465e+00	2.782394e+04	1.111557e+04	2.999679e+02	3.401371e-02	6.709350e-02	1.845764e-05	0.000000e+00	0.000000e+00	0.000000e+00	0.000000e+00	
1.001138e+00	-2.078966e-03	1.281704e-01	1.780371e+00	3.433796e+00	2.763232e+04	1.102958e+04	2.997793e+02	-7.875088e-01	8.694372e-02	1.844872e-05	0.000000e+00	0.000000e+00	0.000000e+00	0.000000e+00	
1.001712e+00	-2.779403e-03	1.289076e-01	1.765503e+00	2.286970e+00	2.778543e+04	1.110122e+04	3.000010e+02	-1.030462e-01	6.454797e-02	1.845921e-05	0.000000e+00	0.000000e+00	0.000000e+00	0.000000e+00	
1.001911e+00	-3.282619e-03	1.289351e-01	1.983821e+00	2.013174e+00	2.779205e+04	1.110443e+04	3.000235e+02	-7.240438e-02	6.312952e-02	1.846028e-05	0.000000e+00	0.000000e+00	0.000000e+00	0.000000e+00	
1.002498e+00	-3.467483e-03	1.289693e-01	1.983466e+00	1.807300e+00	2.779901e+04	1.110844e+04	3.000524e+02	-3.410263e-02	5.991655e-02	1.846164e-05	0.000000e+00	0.000000e+00	0.000000e+00	0.000000e+00	
1.003363e+00	-3.653611e-03	1.289660e-01	2.032706e+00	1.657411e+00	2.779879e+04	1.110885e+04	3.000711e+02	-3.017218e-02	5.856302e-02	1.846253e-05	0.000000e+00	0.000000e+00	0.000000e+00	0.000000e+00	
1.004025e+00	-2.707193e-03	1.289463e-01	1.602786e+00	1.586144e+00	2.779090e+04	1.110847e+04	3.001067e+02	-3.377445e-02	5.035472e-02	1.846421e-05	0.000000e+00	0.000000e+00	0.000000e+00	0.000000e+00	
1.003856e+00	-5.948268e-05	1.290354e-01	-1.698930e-01	1.327251e+00	2.780089e+04	1.111758e+04	3.001454e+02	5.324001e-02	2.985786e-02	1.846604e-05	0.000000e+00	0.000000e+00	0.000000e+00	0.000000e+00	
1.004045e+00	-1.483667e-03	1.288826e-01	1.079539e+00	1.478478e+00	2.777282e+04	1.110393e+04	3.001323e+02	-7.719901e-02	4.089849e-02	1.846542e-05	0.000000e+00	0.000000e+00	0.000000e+00	0.000000e+00	
1.004440e+00	-6.967265e-04	1.289442e-01	5.967005e-01	1.425839e+00	2.778380e+04	1.110981e+04	3.001480e+02	-2.095242e-02	3.451406e-02	1.846616e-05	0.000000e+00	0.000000e+00	0.000000e+00	0.000000e+00	
1.004465e+00	-2.095899e-03	1.289964e-01	1.384746e+00	1.516999e+00	2.779958e+04	1.111329e+04	3.001204e+02	1.227626e-02	4.584803e-02	1.846486e-05	0.000000e+00	0.000000e+00	0.000000e+00	0.000000e+00	
1.003395e+00	4.179837e-04	1.289279e-01	-7.774887e-01	1.120659e+00	2.777465e+04	1.110697e+04	3.001090e+02	-4.808687e-02	3.046237e-02	1.846432e-05	0.000000e+00	0.000000e+00	0.000000e+00	0.000000e+00	
1.002912e+00	7.677267e-04	1.290915e-01	-4.975751e-01	1.043040e+00	2.780606e+04	1.112036e+04	3.000899e+02	7.976502e-02	2.577816e-02	1.846341e-05	0.000000e+00	0.000000e+00	0.000000e+00	0.000000e+00	
1.004078e+00	6.253019e-04	1.289574e-01	-8.300999e-01	1.147416e+00	2.778032e+04	1.110902e+04	3.000957e+02	-2.858209e-02	3.162280e-02	1.846369e-05	0.000000e+00	0.000000e+00	0.000000e+00	0.000000e+00	
1.002439e+00	1.066029e-03	1.293385e-01	1.514863e+00	2.397720e+00	2.786661e+04	1.113420e+04	2.998898e+02	2.120741e-01	6.316479e-02	1.845395e-05	0.000000e+00	0.000000e+00	0.000000e+00	0.000000e+00	
1.001390e+00	-6.608709e-04	1.279472e-01	-1.193325e+00	2.695860e+00	2.757784e+04	1.101755e+04	2.999746e+02	-9.024782e-01	6.636361e-02	1.845796e-05	0.000000e+00	0.000000e+00	0.000000e+00	0.000000e+00	
1.001054e+00	-8.572045e-04	1.286327e-01	-1.770131e+00	4.810106e+00	2.774225e+04	1.105605e+04	2.994189e+02	-5.345795e-01	1.148667e-01	1.843166e-05	0.000000e+00	0.000000e+00	0.000000e+00	0.000000e+00	
1.001950e+00	8.067381e-04	1.296760e-01	2.141068e+00	3.363845e+00	2.795179e+04	1.115619e+04	2.997000e+02	4.221733e-01	8.860160e-02	1.844496e-05	0.000000e+00	0.000000e+00	0.000000e+00	0.000000e+00	
1.001899e+00	3.502616e-04	1.291155e-01	-2.233737e-01	1.542537e+00	2.781768e+04	1.112331e+04	3.001138e+02	1.079776e-01	3.475937e-02	1.846454e-05	0.000000e+00	0.000000e+00	0.000000e+00	0.000000e+00	
1.001822e+00	-6.143986e-05	1.296471e-01	-1.660970e+00	1.239167e+00	2.793756e+04	1.116840e+04	3.000948e+02	5.387859e-01	4.602652e-02	1.846365e-05	0.000000e+00	0.000000e+00	0.000000e+00	0.000000e+00	
1.001458e+00	-2.711793e-04	1.280772e-01	-1.836265e+00	1.845220e+00	2.760304e+04	1.103063e+04	3.000261e+02	-7.774485e-01	5.853413e-02	1.846040e-05	0.000000e+00	0.000000e+00	0.000000e+00	0.000000e+00	
1.000704e+00	-1.003285e-03	1.295816e-01	-1.423538e+00	7.459883e+00	2.797650e+04	1.110158e+04	2.984501e+02	-9.959873e-02	1.692273e-01	1.838573e-05	0.000000e+00	0.000000e+00	0.000000e+00	0.000000e+00	
1.000348e+00	-1.279856e-03	1.282911e-01	2.560071e+00	9.891816e+00	2.774988e+04	1.093719e+04	2.969884e+02	-1.670212e+00	2.305362e-01	1.831631e-05	0.000000e+00	0.000000e+00	0.000000e+00	0.000000e+00	
3.124498e-03	-5.801741e-02	1.253017e-01	2.904566e+00	-1.090130e+01	2.718197e+04	1.066964e+04	2.966355e+02	-4.226459e+00	2.607677e-01	1.829953e-05	0.000000e+00	0.000000e+00	0.000000e+00	0.000000e+00	
2.537646e-03	-5.562804e-02	1.252942e-01	2.560468e+00	-1.097829e+01	2.718052e+04	1.066936e+04	2.966454e+02	-4.229143e+00	2.605780e-01	1.830000e-05	0.000000e+00	0.000000e+00	0.000000e+00	0.000000e+00	
2.003081e-03	-5.323195e-02	1.255159e-01	2.200973e+00	-1.094500e+01	2.722608e+04	1.069183e+04	2.967452e+02	-4.014420e+00	2.575635e-01	1.830474e-05	0.000000e+00	0.000000e+00	0.000000e+00	0.000000e+00	
1.004404e+00	-3.707138e-03	1.289649e-01	1.993954e+00	1.567503e+00	2.779844e+04	1.110940e+04	3.000885e+02	-2.489653e-02	5.663160e-02	1.846335e-05	0.000000e+00	0.000000e+00	0.000000e+00	0.000000e+00	
1.000727e+00	-1.901505e-03	1.293753e-01	2.462065e+00	4.815533e+00	2.790649e+04	1.111738e+04	2.993515e+02	5.129551e-02	1.205259e-01	1.842846e-05	0.000000e+00	0.000000e+00	0.000000e+00	0.000000e+00	
1.000386e+00	-1.647506e-03	1.273080e-01	5.008158e+00	6.009324e+00	2.749510e+04	1.090191e+04	2.983164e+02	-2.007335e+00	1.774639e-01	1.837939e-05	0.000000e+00	0.000000e+00	0.000000e+00	0.000000e+00	
1.001186e+00	-2.547340e-03	1.288460e-01	1.985827e+00	2.887435e+00	2.777648e+04	1.109153e+04	2.998823e+02	-1.956408e-01	7.834620e-02	1.845359e-05	0.000000e+00	0.000000e+00	0.000000e+00	0.000000e+00	
1.000745e+00	-2.361156e-03	1.292104e-01	2.196582e+00	3.471919e+00	2.785956e+04	1.111770e+04	2.997420e+02	5.434943e-02	9.161269e-02	1.844695e-05	0.000000e+00	0.000000e+00	0.000000e+00	0.000000e+00	
1.001327e+00	-3.194746e-03	1.288860e-01	2.161703e+00	2.341951e+00	2.778405e+04	1.109786e+04	2.999603e+02	-1.351757e-01	7.122149e-02	1.845728e-05	0.000000e+00	0.000000e+00	0.000000e+00	0.000000e+00	
1.001592e+00	-3.732263e-03	1.288467e-01	2.229409e+00	2.043041e+00	2.777520e+04	1.109589e+04	2.999985e+02	-1.540226e-01	6.759166e-02	1.845909e-05	0.000000e+00	0.000000e+00	0.000000e+00	0.000000e+00	
1.000045e+00	-1.490679e-03	1.294324e-01	6.547532e+00	5.660308e+00	2.796477e+04	1.107016e+04	2.979484e+02	-3.998573e-01	1.932437e-01	1.836193e-05	0.000000e+00	0.000000e+00	0.000000e+00	0.000000e+00	
9.997621e-01	-1.104660e-03	1.309816e-01	7.346096e+00	2.327661e+00	2.827872e+04	1.122081e+04	2.984312e+02	1.039541e+00	1.698831e-01	1.838484e-05	0.000000e+00	0.000000e+00	0.000000e+00	0.000000e+00	
1.002215e+00	-3.831231e-03	1.289276e-01	2.218143e+00	1.863295e+00	2.779211e+04	1.110382e+04	3.000247e+02	-7.818438e-02	6.470833e-02	1.846033e-05	0.000000e+00	0.000000e+00	0.000000e+00	0.000000e+00	
1.002869e+00	-4.164085e-03	1.289279e-01	2.269517e+00	1.698103e+00	2.779254e+04	1.110455e+04	3.000437e+02	-7.121446e-02	6.331184e-02	1.846123e-05	0.000000e+00	0.000000e+00	0.000000e+00	0.000000e+00	
1.003892e+00	-4.452300e-03	1.289649e-01	2.355922e+00	1.576405e+00	2.780185e+04	1.110828e+04	3.000581e+02	-3.562678e-02	6.329670e-02	1.846191e-05	0.000000e+00	0.000000e+00	0.000000e+00	0.000000e+00	
1.004963e+00	-2.934975e-03	1.289740e-01	1.701855e+00	1.510794e+00	2.779753e+04	1.111098e+04	3.001101e+02	-9.787326e-03	5.080701e-02	1.846437e-05	0.000000e+00	0.000000e+00	0.000000e+00	0.000000e+00	
1.004626e+00	8.251667e-05	1.289213e-01	-1.682352e-01	1.313934e+00	2.777586e+04	1.110762e+04	3.001420e+02	-4.188739e-02	2.958473e-02	1.846588e-05	0.000000e+00	0.000000e+00	0.000000e+00	0.000000e+00	
1.004845e+00	-1.393291e-03	1.290193e-01	1.077010e+00	1.471629e+00	2.780230e+04	1.111577e+04	3.001338e+02	3.591826e-02	4.069833e-02	1.846549e-05	0.000000e+00	0.000000e+00	0.000000e+00	0.000000e+00	
1.005261e+00	-5.693238e-04	1.289576e-01	5.435797e-01	1.412180e+00	2.778642e+04	1.111102e+04	3.001492e+02	-9.464579e-03	3.378531e-02	1.846622e-05	0.000000e+00	0.000000e+00	0.000000e+00	0.000000e+00	
1.005373e+00	-2.118862e-03	1.289468e-01	1.423066e+00	1.462507e+00	2.778894e+04	1.110912e+04	3.001230e+02	-2.761093e-02	4.556680e-02	1.846498e-05	0.000000e+00	0.000000e+00	0.000000e+00	0.000000e+00	
1.005560e+00	-3.749881e-03	1.289623e-01	2.016102e+00	1.479593e+00	2.779817e+04	1.110957e+04	3.000991e+02	-2.328706e-02	5.583804e-02	1.846385e-05	0.000000e+00	0.000000e+00	0.000000e+00	0.000000e+00	
1.004898e+00	9.145989e-04	1.288851e-01	-7.118960e-01	1.085454e+00	2.776436e+04	1.110313e+04	3.001047e+02	-8.483178e-02	2.900098e-02	1.846412e-05	0.000000e+00	0.000000e+00	0.000000e+00	0.000000e+00	
1.003516e+00	1.060272e-03	1.286715e-01	-4.557164e-01	1.238052e+00	2.771451e+04	1.108310e+04	3.000609e+02	-2.761838e-01	2.952536e-02	1.846204e-05	0.000000e+00	0.000000e+00	0.000000e+00	0.000000e+00	
1.002966e+00	1.405166e-03	1.290769e-01	9.737216e-01	1.910273e+00	2.780300e+04	1.111408e+04	2.999545e+02	1.978088e-02	4.784377e-02	1.845701e-05	0.000000e+00	0.000000e+00	0.000000e+00	0.000000e+00	
1.004284e+00	1.534425e-03	1.291328e-01	-3.407091e-01	1.233803e+00	2.781368e+04	1.112293e+04	3.000635e+02	1.044048e-01	2.854380e-02	1.846217e-05	0.000000e+00	0.000000e+00	0.000000e+00	0.000000e+00	
1.002684e+00	1.718303e-03	1.289878e-01	4.106454e+00	4.138647e+00	2.782146e+04	1.107588e+04	2.991299e+02	-3.451790e-01	1.303638e-01	1.841796e-05	0.000000e+00	0.000000e+00	0.000000e+00	0.000000e+00	
1.002006e+00	1.340373e-03	1.298925e-01	4.960661e+00	5.784713e+00	2.804749e+04	1.112958e+04	2.984869e+02	1.679198e-01	1.693887e-01	1.838748e-05	0.000000e+00	0.000000e+00	0.000000e+00	0.000000e+00	
1.001124e+00	-4.576400e-04	1.319813e-01	-3.962194e+00	2.921519e+00	2.846224e+04	1.134817e+04	2.995323e+02	2.256364e+00	1.075057e-01	1.843703e-05	0.000000e+00	0.000000e+00	0.000000e+00	0.000000e+00	
1.000805e+00	-6.197403e-04	1.254318e-01	-3.911039e+00	5.305331e+00	2.707093e+04	1.075910e+04	2.988125e+02	-3.371716e+00	1.516362e-01	1.840292e-05	0.000000e+00	0.000000e+00	0.000000e+00	0.000000e+00	
1.001569e+00	1.052176e-03	1.294815e-01	5.948349e+00	7.487135e+00	2.799973e+04	1.105865e+04	2.975259e+02	-5.097779e-01	2.135744e-01	1.834186e-05	0.000000e+00	0.000000e+00	0.000000e+00	0.000000e+00	
1.001513e+00	5.981918e-04	1.290925e-01	3.885152e+00	4.992481e+00	2.785521e+04	1.108008e+04	2.990008e+02	-3.050234e-01	1.413672e-01	1.841184e-05	0.000000e+00	0.000000e+00	0.000000e+00	0.000000e+00	
1.001488e+00	1.440330e-04	1.279281e-01	2.522073e-01	1.981717e+00	2.756467e+04	1.101963e+04	3.000762e+02	-8.825868e-01	4.496765e-02	1.846277e-05	0.000000e+00	0.000000e+00	0.000000e+00	0.000000e+00	
1.001152e+00	-4.920890e-05	1.287363e-01	-4.244091e-01	2.674196e+00	2.774160e+04	1.108525e+04	2.999678e+02	-2.556407e-01	6.057697e-02	1.845764e-05	0.000000e+00	0.000000e+00	0.000000e+00	0.000000e+00	
1.000463e+00	-6.930646e-04	1.335018e-01	-9.839360e+00	6.072078e+00	2.889905e+04	1.135935e+04	2.964127e+02	2.363155e+00	2.509309e-01	1.828893e-05	0.000000e+00	0.000000e+00	0.000000e+00	0.000000e+00	
1.000000e+00	-1.000000e-03	1.132372e-01	-1.452146e+00	6.147663e+00	2.443936e+04	9.705269e+03	2.985718e+02	-1.344023e+01	1.610414e-01	1.839151e-05	0.000000e+00	0.000000e+00	0.000000e+00	0.000000e+00	
4.487486e-03	-6.290113e-02	1.253067e-01	3.284297e+00	-1.091230e+01	2.718570e+04	1.066701e+04	2.965504e+02	-4.251632e+00	2.634350e-01	1.829548e-05	0.000000e+00	0.000000e+00	0.000000e+00	0.000000e+00	
6.075662e-03	-6.781127e-02	1.250891e-01	3.784940e+00	-1.093369e+01	2.714317e+04	1.064323e+04	2.964041e+02	-4.478827e+00	2.679992e-01	1.828851e-05	0.000000e+00	0.000000e+00	0.000000e+00	0.000000e+00	
-1.885021e-04	-5.731200e-02	1.256048e-01	2.711486e+00	-1.072778e+01	2.724421e+04	1.070273e+04	2.968374e+02	-3.910314e+00	2.550601e-01	1.830913e-05	0.000000e+00	0.000000e+00	0.000000e+00	0.000000e+00	
-3.870981e-04	-6.146957e-02	1.256145e-01	3.102443e+00	-1.063418e+01	2.724674e+04	1.070332e+04	2.968308e+02	-3.904695e+00	2.553280e-01	1.830882e-05	0.000000e+00	0.000000e+00	0.000000e+00	0.000000e+00	
-6.302230e-04	-5.466895e-02	1.256562e-01	2.391487e+00	-1.073194e+01	2.725374e+04	1.070908e+04	2.968921e+02	-3.849671e+00	2.533203e-01	1.831173e-05	0.000000e+00	0.000000e+00	0.000000e+00	0.000000e+00	
-2.970015e-03	-5.626891e-02	1.258355e-01	2.543480e+00	-1.056368e+01	2.729047e+04	1.072854e+04	2.970077e+02	-3.663681e+00	2.499289e-01	1.831723e-05	0.000000e+00	0.000000e+00	0.000000e+00	0.000000e+00	
1.078855e-03	-4.830066e-02	1.255546e-01	1.760917e+00	-1.086465e+01	2.723127e+04	1.069954e+04	2.968674e+02	-3.940815e+00	2.537952e-01	1.831056e-05	0.000000e+00	0.000000e+00	0.000000e+00	0.000000e+00	
-2.292723e-03	-5.074039e-02	1.258396e-01	1.999447e+00	-1.059975e+01	2.728896e+04	1.073066e+04	2.970569e+02	-3.643459e+00	2.480859e-01	1.831957e-05	0.000000e+00	0.000000e+00	0.000000e+00	0.000000e+00	
1.005004e+00	-4.628473e-03	1.289864e-01	2.341240e+00	1.479416e+00	2.780665e+04	1.111077e+04	3.000755e+02	-1.185420e-02	6.182895e-02	1.846273e-05	0.000000e+00	0.000000e+00	0.000000e+00	0.000000e+00	
1.001519e+00	-4.196041e-03	1.289268e-01	2.477468e+00	1.949997e+00	2.779467e+04	1.110245e+04	2.999894e+02	-9.134520e-02	7.042966e-02	1.845866e-05	0.000000e+00	0.000000e+00	0.000000e+00	0.000000e+00	
1.000298e+00	-2.226422e-03	1.280349e-01	3.401925e+00	3.952187e+00	2.761740e+04	1.100448e+04	2.994137e+02	-1.027313e+00	1.174126e-01	1.843141e-05	0.000000e+00	0.000000e+00	0.000000e+00	0.000000e+00	
1.000754e+00	-3.046661e-03	1.289665e-01	2.535675e+00	2.857224e+00	2.780675e+04	1.110007e+04	2.998328e+02	-1.140785e-01	8.533215e-02	1.845125e-05	0.000000e+00	0.000000e+00	0.000000e+00	0.000000e+00	
1.000995e+00	-3.672892e-03	1.288571e-01	2.431485e+00	2.216859e+00	2.778027e+04	1.109530e+04	2.999586e+02	-1.596014e-01	7.354582e-02	1.845720e-05	0.000000e+00	0.000000e+00	0.000000e+00	0.000000e+00	
9.996092e-01	-1.963738e-03	1.271550e-01	4.456707e+00	2.734126e+00	2.742749e+04	1.092800e+04	2.993902e+02	-1.758064e+00	1.185441e-01	1.843029e-05	0.000000e+00	0.000000e+00	0.000000e+00	0.000000e+00	
9.990485e-01	-1.418556e-03	1.277283e-01	4.717082e+00	2.303541e+00	2.755061e+04	1.097710e+04	2.993855e+02	-1.288974e+00	1.184857e-01	1.843007e-05	0.000000e+00	0.000000e+00	0.000000e+00	0.000000e+00	
1.002237e+00	-4.534769e-03	1.289901e-01	2.465171e+00	1.740730e+00	2.780790e+04	1.110904e+04	3.000203e+02	-2.835949e-02	6.737710e-02	1.846012e-05	0.000000e+00	0.000000e+00	0.000000e+00	0.000000e+00	
1.002909e+00	-4.945241e-03	1.289764e-01	2.500545e+00	1.637806e+00	2.780558e+04	1.110838e+04	3.000342e+02	-3.469111e-02	6.674307e-02	1.846078e-05	0.000000e+00	0.000000e+00	0.000000e+00	0.000000e+00	
1.001699e+00	-5.110311e-03	1.288419e-01	2.677159e+00	1.781813e+00	2.777825e+04	1.109524e+04	2.999924e+02	-1.601531e-01	7.188563e-02	1.845880e-05	0.000000e+00	0.000000e+00	0.000000e+00	0.000000e+00	
1.004665e+00	-5.699872e-03	1.289914e-01	2.624214e+00	1.459488e+00	2.781067e+04	1.111029e+04	3.000509e+02	-1.644441e-02	6.703700e-02	1.846157e-05	0.000000e+00	0.000000e+00	0.000000e+00	0.000000e+00	
1.003632e+00	-5.477690e-03	1.289868e-01	2.641456e+00	1.547315e+00	2.780980e+04	1.110939e+04	3.000373e+02	-2.502229e-02	6.834743e-02	1.846093e-05	0.000000e+00	0.000000e+00	0.000000e+00	0.000000e+00	
1.006028e+00	-2.826159e-03	1.289755e-01	1.694610e+00	1.443615e+00	2.779762e+04	1.111136e+04	3.001170e+02	-6.138109e-03	4.969954e-02	1.846470e-05	0.000000e+00	0.000000e+00	0.000000e+00	0.000000e+00	
1.005500e+00	2.562975e-04	1.290291e-01	-1.267682e-01	1.291775e+00	2.779899e+04	1.111699e+04	3.001440e+02	4.756666e-02	2.896455e-02	1.846598e-05	0.000000e+00	0.000000e+00	0.000000e+00	0.000000e+00	
1.005749e+00	-1.282527e-03	1.289601e-01	1.033956e+00	1.430996e+00	2.778916e+04	1.111083e+04	3.001384e+02	-1.125715e-02	3.941764e-02	1.846571e-05	0.000000e+00	0.000000e+00	0.000000e+00	0.000000e+00	
1.006190e+00	-4.159803e-04	1.289834e-01	5.348204e-01	1.379814e+00	2.779178e+04	1.111332e+04	3.001513e+02	1.251542e-02	3.303401e-02	1.846632e-05	0.000000e+00	0.000000e+00	0.000000e+00	0.000000e+00	
1.006335e+00	-1.877939e-03	1.289991e-01	1.356267e+00	1.414572e+00	2.779956e+04	1.111387e+04	3.001297e+02	1.777733e-02	4.374239e-02	1.846530e-05	0.000000e+00	0.000000e+00	0.000000e+00	0.000000e+00	
1.006716e+00	-3.703251e-03	1.289791e-01	1.970355e+00	1.402229e+00	2.780114e+04	1.111139e+04	3.001091e+02	-5.915268e-03	5.399033e-02	1.846433e-05	0.000000e+00	0.000000e+00	0.000000e+00	0.000000e+00	
1.006215e+00	-4.763586e-03	1.290032e-01	2.310320e+00	1.401401e+00	2.781010e+04	1.111272e+04	3.000890e+02	6.797704e-03	6.031588e-02	1.846337e-05	0.000000e+00	0.000000e+00	0.000000e+00	0.000000e+00	
1.005854e+00	9.968151e-04	1.289669e-01	-5.775640e-01	1.088076e+00	2.778215e+04	1.111051e+04	3.001139e+02	-1.434551e-02	2.750381e-02	1.846455e-05	0.000000e+00	0.000000e+00	0.000000e+00	0.000000e+00	
1.005271e+00	1.766034e-03	1.288836e-01	-2.527633e-01	1.054429e+00	2.775988e+04	1.110213e+04	3.000812e+02	-9.440332e-02	2.422614e-02	1.846300e-05	0.000000e+00	0.000000e+00	0.000000e+00	0.000000e+00	
1.003564e+00	2.058320e-03	1.286912e-01	2.485367e+00	2.572469e+00	2.773179e+04	1.107283e+04	2.997370e+02	-3.742906e-01	8.008413e-02	1.844672e-05	0.000000e+00	0.000000e+00	0.000000e+00	0.000000e+00	
1.004560e+00	2.449293e-03	1.289679e-01	2.076266e+00	2.052386e+00	2.778638e+04	1.110134e+04	2.998638e+02	-1.019643e-01	6.520911e-02	1.845272e-05	0.000000e+00	0.000000e+00	0.000000e+00	0.000000e+00	
1.002127e+00	2.022430e-03	1.305561e-01	7.238117e+00	7.733680e+00	2.825914e+04	1.113178e+04	2.970282e+02	1.888873e-01	2.348291e-01	1.831820e-05	0.000000e+00	0.000000e+00	0.000000e+00	0.000000e+00	
1.002899e+00	2.558013e-03	1.308273e-01	6.840466e+00	6.505112e+00	2.829112e+04	1.118022e+04	2.977024e+02	6.517510e-01	2.086032e-01	1.835025e-05	0.000000e+00	0.000000e+00	0.000000e+00	0.000000e+00	
1.001681e+00	1.573867e-03	1.318538e-01	7.324008e+00	9.068411e+00	2.856660e+04	1.122054e+04	2.964500e+02	1.036922e+00	2.561274e-01	1.829070e-05	0.000000e+00	0.000000e+00	0.000000e+00	0.000000e+00	
1.001210e+00	1.345126e-03	1.312867e-01	7.688700e+00	1.027725e+01	2.847881e+04	1.114056e+04	2.956084e+02	2.728275e-01	2.836409e-01	1.825062e-05	0.000000e+00	0.000000e+00	0.000000e+00	0.000000e+00	
1.000848e+00	-1.998693e-04	1.250197e-01	-1.887810e-01	2.783865e+00	2.693948e+04	1.076334e+04	2.999154e+02	-3.331249e+00	6.428619e-02	1.845516e-05	0.000000e+00	0.000000e+00	0.000000e+00	0.000000e+00	
1.000594e+00	-3.604208e-04	1.262942e-01	-2.660229e+00	4.139458e+00	2.722437e+04	1.085140e+04	2.993180e+02	-2.489847e+00	1.123352e-01	1.842688e-05	0.000000e+00	0.000000e+00	0.000000e+00	0.000000e+00	
1.001130e+00	8.636370e-04	1.326798e-01	6.694874e+00	9.963151e+00	2.874809e+04	1.128204e+04	2.962194e+02	1.624554e+00	2.622106e-01	1.827972e-05	0.000000e+00	0.000000e+00	0.000000e+00	0.000000e+00	
1.001142e+00	3.310049e-04	1.326683e-01	4.466635e+00	7.220356e+00	2.865899e+04	1.135493e+04	2.981588e+02	2.320900e+00	1.848761e-01	1.837191e-05	0.000000e+00	0.000000e+00	0.000000e+00	0.000000e+00	
1.000844e+00	1.507612e-04	1.303689e-01	7.613461e+00	8.908796e+00	2.823382e+04	1.108285e+04	2.961471e+02	-2.786073e-01	2.605603e-01	1.827628e-05	0.000000e+00	0.000000e+00	0.000000e+00	0.000000e+00	
1.000365e+00	-3.381296e-04	1.243023e-01	4.628152e+00	1.630554e+01	2.709091e+04	1.037412e+04	2.907384e+02	-7.049932e+00	3.989159e-01	1.801760e-05	0.000000e+00	0.000000e+00	0.000000e+00	0.000000e+00	
1.000000e+00	0.000000e+00	2.419148e-01	1.935048e+01	1.028307e+02	5.854066e+04	1.436465e+04	2.068536e+02	3.107634e+01	1.500156e+00	1.367179e-05	0.000000e+00	0.000000e+00	0.000000e+00	0.000000e+00	
5.244312e-04	-6.685825e-02	1.255364e-01	3.573737e+00	-1.060950e+01	2.723274e+04	1.069342e+04	2.967410e+02	-3.999243e+00	2.582413e-01	1.830454e-05	0.000000e+00	0.000000e+00	0.000000e+00	0.000000e+00	
7.917903e-03	-7.281690e-02	1.249781e-01	4.272402e+00	-1.092217e+01	2.712310e+04	1.062913e+04	2.962744e+02	-4.613522e+00	2.719546e-01	1.828234e-05	0.000000e+00	0.000000e+00	0.000000e+00	0.000000e+00	
1.006240e-02	-7.799663e-02	1.248350e-01	4.775394e+00	-1.089625e+01	2.709653e+04	1.061186e+04	2.961321e+02	-4.778475e+00	2.762487e-01	1.827557e-05	0.000000e+00	0.000000e+00	0.000000e+00	0.000000e+00	
1.251909e-02	-8.331321e-02	1.246891e-01	5.289496e+00	-1.084956e+01	2.706957e+04	1.059414e+04	2.959835e+02	-4.947784e+00	2.806766e-01	1.826849e-05	0.000000e+00	0.000000e+00	0.000000e+00	0.000000e+00	
1.529738e-02	-8.873087e-02	1.245370e-01	5.819241e+00	-1.076844e+01	2.704126e+04	1.057589e+04	2.958346e+02	-5.122113e+00	2.850476e-01	1.826140e-05	0.000000e+00	0.000000e+00	0.000000e+00	0.000000e+00	
1.843145e-02	-9.424909e-02	1.243912e-01	6.358855e+00	-1.063937e+01	2.701393e+04	1.055856e+04	2.956960e+02	-5.287732e+00	2.890537e-01	1.825480e-05	0.000000e+00	0.000000e+00	0.000000e+00	0.000000e+00	
2.196161e-02	-9.987520e-02	1.242632e-01	6.889668e+00	-1.046228e+01	2.698987e+04	1.054338e+04	2.955749e+02	-5.432801e+00	2.924985e-01	1.824902e-05	0.000000e+00	0.000000e+00	0.000000e+00	0.000000e+00	
2.590787e-02	-1.055959e-01	1.241560e-01	7.406554e+00	-1.025476e+01	2.697005e+04	1.053025e+04	2.954617e+02	-5.558206e+00	2.956760e-01	1.824363e-05	0.000000e+00	0.000000e+00	0.000000e+00	0.000000e+00	
3.032086e-02	-1.114427e-01	1.240490e-01	7.916990e+00	-1.002002e+01	2.695024e+04	1.051717e+04	2.953493e+02	-5.683183e+00	2.988062e-01	1.823827e-05	0.000000e+00	0.000000e+00	0.000000e+00	0.000000e+00	
3.519676e-02	-1.173457e-01	1.239392e-01	8.426253e+00	-9.743158e+00	2.692960e+04	1.050408e+04	2.952431e+02	-5.808256e+00	3.017285e-01	1.823321e-05	0.000000e+00	0.000000e+00	0.000000e+00	0.000000e+00	
4.055945e-02	-1.232739e-01	1.238463e-01	8.922795e+00	-9.419072e+00	2.691209e+04	1.049299e+04	2.951527e+02	-5.914192e+00	3.041812e-01	1.822889e-05	0.000000e+00	0.000000e+00	0.000000e+00	0.000000e+00	
4.640551e-02	-1.291712e-01	1.237740e-01	9.395523e+00	-9.051363e+00	2.689840e+04	1.048434e+04	2.950814e+02	-5.996853e+00	3.060796e-01	1.822550e-05	0.000000e+00	0.000000e+00	0.000000e+00	0.000000e+00	
5.272092e-02	-1.349830e-01	1.237240e-01	9.833915e+00	-8.642402e+00	2.688871e+04	1.047842e+04	2.950341e+02	-6.053399e+00	3.073001e-01	1.822324e-05	0.000000e+00	0.000000e+00	0.000000e+00	0.000000e+00	