TITLE = "Visualization of the surface solution"
VARIABLES = "x""y""Conservative_1""Conservative_2""Conservative_3""Conservative_4""Pressure""Temperature""C<sub>p</sub>""Mach""<greek>m</greek>""C<sub>f</sub>_x""C<sub>f</sub>_y""h""y<sup>+</sup>"
ZONE NODES= 200, ELEMENTS= 200, DATAPACKING=POINT, ZONETYPE=FELINESEG
3.124498e-03	-5.801741e-02	1.253017e-01	2.904566e+00	-1.090130e+01	2.718197e+04	1.066964e+04	2.966355e+02	-4.226459e+00	2.607677e-01	1.829953e-05	0.000000e+00	0.000000e+00	0.000000e+00	0.000000e+00	
2.537646e-03	-5.562804e-02	1.252942e-01	2.560468e+00	-1.097829e+01	2.718052e+04	1.066936e+04	2.966454e+02	-4.229143e+00	2.605780e-01	1.830000e-05	0.000000e+00	0.000000e+00	0.000000e+00	0.000000e+00	
2.003081e-03	-5.323195e-02	1.255159e-01	2.200973e+00	-1.094500e+01	2.722608e+04	1.069183e+04	2.967452e+02	-4.014420e+00	2.575635e-01	1.830474e-05	0.000000e+00	0.000000e+00	0.000000e+00	0.000000e+00	
9.997621e-01	-1.104660e-03	1.309816e-01	7.346096e+00	2.327661e+00	2.827872e+04	1.122081e+04	2.984312e+02	1.039541e+00	1.698831e-01	1.838484e-05	0.000000e+00	0.000000e+00	0.000000e+00	0.000000e+00	
1.000000e+00	-1.000000e-03	1.132372e-01	-1.452146e+00	6.147663e+00	2.443936e+04	9.705269e+03	2.985718e+02	-1.344023e+01	1.610414e-01	1.839151e-05	0.000000e+00	0.000000e+00	0.000000e+00	0.000000e+00	
4.487486e-03	-6.290113e-02	1.253067e-01	3.284297e+00	-1.091230e+01	2.718570e+04	1.066701e+04	2.965504e+02	-4.251632e+00	2.634350e-01	1.829548e-05	0.000000e+00	0.000000e+00	0.000000e+00	0.000000e+00	
6.075662e-03	-6.781127e-02	1.250891e-01	3.784940e+00	-1.093369e+01	2.714317e+04	1.064323e+04	2.964041e+02	-4.478827e+00	2.679992e-01	1.828851e-05	0.000000e+00	0.000000e+00	0.000000e+00	0.000000e+00	
1.078855e-03	-4.830066e-02	1.255546e-01	1.760917e+00	-1.086465e+01	2.723127e+04	1.069954e+04	2.968674e+02	-3.940815e+00	2.537952e-01	1.831056e-05	0.000000e+00	0.000000e+00	0.000000e+00	0.000000e+00	
9.990485e-01	-1.418556e-03	1.277283e-01	4.717082e+00	2.303541e+00	2.755061e+04	1.097710e+04	2.993855e+02	-1.288974e+00	1.184857e-01	1.843007e-05	0.000000e+00	0.000000e+00	0.000000e+00	0.000000e+00	
1.000000e+00	0.000000e+00	2.419148e-01	1.935048e+01	1.028307e+02	5.854066e+04	1.436465e+04	2.068536e+02	3.107634e+01	1.500156e+00	1.367179e-05	0.000000e+00	0.000000e+00	0.000000e+00	0.000000e+00	
7.917903e-03	-7.281690e-02	1.249781e-01	4.272402e+00	-1.092217e+01	2.712310e+04	1.062913e+04	2.962744e+02	-4.613522e+00	2.719546e-01	1.828234e-05	0.000000e+00	0.000000e+00	0.000000e+00	0.000000e+00	
1.006240e-02	-7.799663e-02	1.248350e-01	4.775394e+00	-1.089625e+01	2.709653e+04	1.061186e+04	2.961321e+02	-4.778475e+00	2.762487e-01	1.827557e-05	0.000000e+00	0.000000e+00	0.000000e+00	0.000000e+00	
1.251909e-02	-8.331321e-02	1.246891e-01	5.289496e+00	-1.084956e+01	2.706957e+04	1.059414e+04	2.959835e+02	-4.947784e+00	2.806766e-01	1.826849e-05	0.000000e+00	0.000000e+00	0.000000e+00	0.000000e+00	
1.529738e-02	-8.873087e-02	1.245370e-01	5.819241e+00	-1.076844e+01	2.704126e+04	1.057589e+04	2.958346e+02	-5.122113e+00	2.850476e-01	1.826140e-05	0.000000e+00	0.000000e+00	0.000000e+00	0.000000e+00	
1.843145e-02	-9.424909e-02	1.243912e-01	6.358855e+00	-1.063937e+01	2.701393e+04	1.055856e+04	2.956960e+02	-5.287732e+00	2.890537e-01	1.825480e-05	0.000000e+00	0.000000e+00	0.000000e+00	0.000000e+00	
2.196161e-02	-9.987520e-02	1.242632e-01	6.889668e+00	-1.046228e+01	2.698987e+04	1.054338e+04	2.955749e+02	-5.432801e+00	2.924985e-01	1.824902e-05	0.000000e+00	0.000000e+00	0.000000e+00	0.000000e+00	
2.590787e-02	-1.055959e-01	1.241560e-01	7.406554e+00	-1.025476e+01	2.697005e+04	1.053025e+04	2.954617e+02	-5.558206e+00	2.956760e-01	1.824363e-05	0.000000e+00	0.000000e+00	0.000000e+00	0.000000e+00	
3.032086e-02	-1.114427e-01	1.240490e-01	7.916990e+00	-1.002002e+01	2.695024e+04	1.051717e+04	2.953493e+02	-5.683183e+00	2.988062e-01	1.823827e-05	0.000000e+00	0.000000e+00	0.000000e+00	0.000000e+00	
3.519676e-02	-1.173457e-01	1.239392e-01	8.426253e+00	-9.743158e+00	2.692960e+04	1.050408e+04	2.952431e+02	-5.808256e+00	3.017285e-01	1.823321e-05	0.000000e+00	0.000000e+00	0.000000e+00	0.000000e+00	
4.055945e-02	-1.232739e-01	1.238463e-01	8.922795e+00	-9.419072e+00	2.691209e+04	1.049299e+04	2.951527e+02	-5.914192e+00	3.041812e-01	1.822889e-05	0.000000e+00	0.000000e+00	0.000000e+00	0.000000e+00	
4.640551e-02	-1.291712e-01	1.237740e-01	9.395523e+00	-9.051363e+00	2.689840e+04	1.048434e+04	2.950814e+02	-5.996853e+00	3.060796e-01	1.822550e-05	0.000000e+00	0.000000e+00	0.000000e+00	0.000000e+00	
5.272092e-02	-1.349830e-01	1.237240e-01	9.833915e+00	-8.642402e+00	2.688871e+04	1.047842e+04	2.950341e+02	-6.053399e+00	3.073001e-01	1.822324e-05	0.000000e+00	0.000000e+00	0.000000e+00	0.000000e+00	
5.950360e-02	-1.406746e-01	1.237011e-01	1.023136e+01	-8.197700e+00	2.688403e+04	1.047571e+04	2.950124e+02	-6.079272e+00	3.078037e-01	1.822220e-05	0.000000e+00	0.000000e+00	0.000000e+00	0.000000e+00	
4.060150e-04	-4.334775e-02	1.256346e-01	1.143736e+00	-1.090608e+01	2.724802e+04	1.070778e+04	2.969071e+02	-3.862056e+00	2.526828e-01	1.831245e-05	0.000000e+00	0.000000e+00	0.000000e+00	0.000000e+00	
6.675311e-02	-1.462181e-01	1.237056e-01	1.058039e+01	-7.725923e+00	2.688436e+04	1.047626e+04	2.950170e+02	-6.074089e+00	3.075677e-01	1.822242e-05	0.000000e+00	0.000000e+00	0.000000e+00	0.000000e+00	
9.978687e-01	-1.936527e-03	1.288652e-01	4.077669e+00	1.827854e+00	2.779071e+04	1.108529e+04	2.996690e+02	-2.552252e-01	9.992324e-02	1.844350e-05	0.000000e+00	0.000000e+00	0.000000e+00	0.000000e+00	
9.999629e-01	-1.365582e-05	1.790374e-01	8.295426e+00	-2.511435e+01	3.910546e+04	1.486073e+04	2.891524e+02	3.581602e+01	4.333628e-01	1.794130e-05	0.000000e+00	0.000000e+00	0.000000e+00	0.000000e+00	
3.518009e-05	-3.847581e-02	1.253361e-01	4.073748e-01	-1.104020e+01	2.718653e+04	1.067985e+04	2.968380e+02	-4.128896e+00	2.552042e-01	1.830916e-05	0.000000e+00	0.000000e+00	0.000000e+00	0.000000e+00	
7.446654e-02	-1.515939e-01	1.237390e-01	1.087799e+01	-7.242789e+00	2.689021e+04	1.048004e+04	2.950439e+02	-6.037948e+00	3.067120e-01	1.822370e-05	0.000000e+00	0.000000e+00	0.000000e+00	0.000000e+00	
9.962132e-01	-2.659122e-03	1.287618e-01	3.605158e+00	1.587148e+00	2.776603e+04	1.108231e+04	2.998291e+02	-2.837196e-01	8.812923e-02	1.845107e-05	0.000000e+00	0.000000e+00	0.000000e+00	0.000000e+00	
9.987533e-01	-4.586092e-04	1.268984e-01	3.638143e+00	1.798091e+00	2.742224e+04	1.094294e+04	3.004057e+02	-1.615313e+00	9.204017e-02	1.847835e-05	0.000000e+00	0.000000e+00	0.000000e+00	0.000000e+00	
6.353361e-05	-3.458593e-02	1.254590e-01	-8.459793e-01	-1.103151e+01	2.721406e+04	1.069049e+04	2.968425e+02	-4.027292e+00	2.553257e-01	1.830937e-05	0.000000e+00	0.000000e+00	0.000000e+00	0.000000e+00	
8.264737e-02	-1.567941e-01	1.237899e-01	1.112887e+01	-6.755773e+00	2.689931e+04	1.048588e+04	2.950870e+02	-5.982086e+00	3.053975e-01	1.822576e-05	0.000000e+00	0.000000e+00	0.000000e+00	0.000000e+00	
9.940823e-01	-3.577812e-03	1.288817e-01	3.493263e+00	1.492204e+00	2.779297e+04	1.109479e+04	2.998876e+02	-1.644555e-01	8.489993e-02	1.845384e-05	0.000000e+00	0.000000e+00	0.000000e+00	0.000000e+00	
9.970564e-01	-1.078208e-03	1.305450e-01	2.446144e+00	8.951678e-01	2.819844e+04	1.126898e+04	3.007147e+02	1.499754e+00	5.739668e-02	1.849296e-05	0.000000e+00	0.000000e+00	0.000000e+00	0.000000e+00	
6.108891e-04	-3.051301e-02	1.259187e-01	-2.115007e+00	-1.044883e+01	2.730366e+04	1.074095e+04	2.971547e+02	-3.545165e+00	2.449946e-01	1.832422e-05	0.000000e+00	0.000000e+00	0.000000e+00	0.000000e+00	
1.772811e-03	-2.605063e-02	1.264551e-01	-3.120170e+00	-9.446987e+00	2.740317e+04	1.080472e+04	2.976511e+02	-2.935882e+00	2.274768e-01	1.834781e-05	0.000000e+00	0.000000e+00	0.000000e+00	0.000000e+00	
9.127835e-02	-1.617931e-01	1.238523e-01	1.133811e+01	-6.267423e+00	2.691044e+04	1.049315e+04	2.951429e+02	-5.912635e+00	3.037178e-01	1.822843e-05	0.000000e+00	0.000000e+00	0.000000e+00	0.000000e+00	
1.003586e-01	-1.665787e-01	1.239284e-01	1.150747e+01	-5.783798e+00	2.692419e+04	1.050198e+04	2.952098e+02	-5.828291e+00	3.017202e-01	1.823162e-05	0.000000e+00	0.000000e+00	0.000000e+00	0.000000e+00	
9.914854e-01	-4.673515e-03	1.289094e-01	3.490230e+00	1.449335e+00	2.780114e+04	1.109830e+04	2.999178e+02	-1.309797e-01	8.444312e-02	1.845527e-05	0.000000e+00	0.000000e+00	0.000000e+00	0.000000e+00	
9.948726e-01	-1.857305e-03	1.293794e-01	3.177136e+00	1.424845e+00	2.795212e+04	1.116211e+04	3.005463e+02	4.786634e-01	7.743904e-02	1.848500e-05	0.000000e+00	0.000000e+00	0.000000e+00	0.000000e+00	
9.884322e-01	-5.921711e-03	1.289316e-01	3.547374e+00	1.418603e+00	2.780866e+04	1.110082e+04	2.999342e+02	-1.068805e-01	8.534932e-02	1.845605e-05	0.000000e+00	0.000000e+00	0.000000e+00	0.000000e+00	
9.849038e-01	-7.307491e-03	1.289436e-01	3.620510e+00	1.387515e+00	2.781391e+04	1.110225e+04	2.999448e+02	-9.326547e-02	8.660793e-02	1.845655e-05	0.000000e+00	0.000000e+00	0.000000e+00	0.000000e+00	
9.809289e-01	-8.801978e-03	1.289548e-01	3.687213e+00	1.355788e+00	2.781864e+04	1.110352e+04	2.999531e+02	-8.108242e-02	8.774489e-02	1.845694e-05	0.000000e+00	0.000000e+00	0.000000e+00	0.000000e+00	
3.645682e-03	-2.131006e-02	1.270700e-01	-3.885506e+00	-8.203983e+00	2.751761e+04	1.087735e+04	2.982018e+02	-2.241967e+00	2.063588e-01	1.837395e-05	0.000000e+00	0.000000e+00	0.000000e+00	0.000000e+00	
1.098763e-01	-1.711349e-01	1.240110e-01	1.164392e+01	-5.304285e+00	2.693911e+04	1.051161e+04	2.952837e+02	-5.736299e+00	2.995141e-01	1.823514e-05	0.000000e+00	0.000000e+00	0.000000e+00	0.000000e+00	
9.922119e-01	-2.762955e-03	1.296783e-01	3.210785e+00	1.014635e+00	2.801582e+04	1.118884e+04	3.005718e+02	7.340782e-01	7.471193e-02	1.848620e-05	0.000000e+00	0.000000e+00	0.000000e+00	0.000000e+00	
9.764884e-01	-1.040697e-02	1.289666e-01	3.737336e+00	1.330151e+00	2.782307e+04	1.110482e+04	2.999610e+02	-6.864905e-02	8.859360e-02	1.845732e-05	0.000000e+00	0.000000e+00	0.000000e+00	0.000000e+00	
9.716110e-01	-1.212348e-02	1.289778e-01	3.769536e+00	1.319243e+00	2.782702e+04	1.110608e+04	2.999687e+02	-5.666659e-02	8.918172e-02	1.845768e-05	0.000000e+00	0.000000e+00	0.000000e+00	0.000000e+00	
6.317071e-03	-1.645306e-02	1.276461e-01	-4.395377e+00	-6.807377e+00	2.762374e+04	1.094662e+04	2.987464e+02	-1.580164e+00	1.832069e-01	1.839978e-05	0.000000e+00	0.000000e+00	0.000000e+00	0.000000e+00	
1.198146e-01	-1.754362e-01	1.241000e-01	1.174951e+01	-4.825131e+00	2.695516e+04	1.052206e+04	2.953653e+02	-5.636459e+00	2.970717e-01	1.823903e-05	0.000000e+00	0.000000e+00	0.000000e+00	0.000000e+00	
1.301865e-01	-1.794694e-01	1.242008e-01	1.181916e+01	-4.345550e+00	2.697333e+04	1.053398e+04	2.954598e+02	-5.522611e+00	2.942367e-01	1.824353e-05	0.000000e+00	0.000000e+00	0.000000e+00	0.000000e+00	
9.662775e-01	-1.398473e-02	1.289862e-01	3.790695e+00	1.328445e+00	2.783011e+04	1.110703e+04	2.999750e+02	-4.759348e-02	8.968884e-02	1.845798e-05	0.000000e+00	0.000000e+00	0.000000e+00	0.000000e+00	
1.409639e-01	-1.832071e-01	1.243158e-01	1.185359e+01	-3.871958e+00	2.699419e+04	1.054751e+04	2.955655e+02	-5.393354e+00	2.910467e-01	1.824858e-05	0.000000e+00	0.000000e+00	0.000000e+00	0.000000e+00	
1.521370e-01	-1.866333e-01	1.244420e-01	1.184811e+01	-3.405314e+00	2.701694e+04	1.056253e+04	2.956864e+02	-5.249847e+00	2.873778e-01	1.825433e-05	0.000000e+00	0.000000e+00	0.000000e+00	0.000000e+00	
1.637051e-01	-1.897380e-01	1.245839e-01	1.180791e+01	-2.955625e+00	2.704275e+04	1.057925e+04	2.958172e+02	-5.090072e+00	2.833654e-01	1.826057e-05	0.000000e+00	0.000000e+00	0.000000e+00	0.000000e+00	
1.756580e-01	-1.925149e-01	1.247330e-01	1.173280e+01	-2.526389e+00	2.706979e+04	1.059696e+04	2.959580e+02	-4.920896e+00	2.789962e-01	1.826727e-05	0.000000e+00	0.000000e+00	0.000000e+00	0.000000e+00	
9.605069e-01	-1.601806e-02	1.289894e-01	3.811122e+00	1.357722e+00	2.783199e+04	1.110742e+04	2.999781e+02	-4.383755e-02	9.033394e-02	1.845812e-05	0.000000e+00	0.000000e+00	0.000000e+00	0.000000e+00	
1.879741e-01	-1.949596e-01	1.248897e-01	1.163237e+01	-2.124946e+00	2.709837e+04	1.061542e+04	2.961017e+02	-4.744439e+00	2.744733e-01	1.827412e-05	0.000000e+00	0.000000e+00	0.000000e+00	0.000000e+00	
2.006410e-01	-1.970742e-01	1.250451e-01	1.151095e+01	-1.750966e+00	2.712661e+04	1.063381e+04	2.962463e+02	-4.568736e+00	2.698587e-01	1.828100e-05	0.000000e+00	0.000000e+00	0.000000e+00	0.000000e+00	
2.136354e-01	-1.988600e-01	1.251981e-01	1.137763e+01	-1.402203e+00	2.715451e+04	1.065187e+04	2.963866e+02	-4.396248e+00	2.653074e-01	1.828768e-05	0.000000e+00	0.000000e+00	0.000000e+00	0.000000e+00	
2.269565e-01	-2.003131e-01	1.253439e-01	1.123030e+01	-1.070683e+00	2.718088e+04	1.066929e+04	2.965258e+02	-4.229832e+00	2.607192e-01	1.829431e-05	0.000000e+00	0.000000e+00	0.000000e+00	0.000000e+00	
2.405831e-01	-2.014261e-01	1.254913e-01	1.107131e+01	-7.578142e-01	2.720765e+04	1.068679e+04	2.966636e+02	-4.062570e+00	2.561059e-01	1.830086e-05	0.000000e+00	0.000000e+00	0.000000e+00	0.000000e+00	
2.545034e-01	-2.021944e-01	1.256358e-01	1.089854e+01	-4.618751e-01	2.723377e+04	1.070408e+04	2.968019e+02	-3.897373e+00	2.513985e-01	1.830744e-05	0.000000e+00	0.000000e+00	0.000000e+00	0.000000e+00	
2.687049e-01	-2.026148e-01	1.257818e-01	1.071591e+01	-1.852248e-01	2.726027e+04	1.072147e+04	2.969387e+02	-3.731306e+00	2.466573e-01	1.831395e-05	0.000000e+00	0.000000e+00	0.000000e+00	0.000000e+00	
2.831543e-01	-2.026857e-01	1.259247e-01	1.052181e+01	7.367134e-02	2.728609e+04	1.073860e+04	2.970756e+02	-3.567644e+00	2.418287e-01	1.832046e-05	0.000000e+00	0.000000e+00	0.000000e+00	0.000000e+00	
2.978479e-01	-2.024077e-01	1.260685e-01	1.031912e+01	3.131805e-01	2.731215e+04	1.075578e+04	2.972114e+02	-3.403502e+00	2.369487e-01	1.832691e-05	0.000000e+00	0.000000e+00	0.000000e+00	0.000000e+00	
3.127718e-01	-2.017830e-01	1.262099e-01	1.010723e+01	5.330503e-01	2.733769e+04	1.077274e+04	2.973469e+02	-3.241393e+00	2.319859e-01	1.833335e-05	0.000000e+00	0.000000e+00	0.000000e+00	0.000000e+00	
3.278929e-01	-2.008205e-01	1.263511e-01	9.890721e+00	7.306951e-01	2.736330e+04	1.078963e+04	2.974799e+02	-3.080092e+00	2.270143e-01	1.833967e-05	0.000000e+00	0.000000e+00	0.000000e+00	0.000000e+00	
3.431989e-01	-1.995322e-01	1.264877e-01	9.671421e+00	9.070121e-01	2.738801e+04	1.080601e+04	2.976098e+02	-2.923581e+00	2.220603e-01	1.834584e-05	0.000000e+00	0.000000e+00	0.000000e+00	0.000000e+00	
3.586875e-01	-1.979304e-01	1.266208e-01	9.452522e+00	1.062410e+00	2.741212e+04	1.082194e+04	2.977353e+02	-2.771398e+00	2.171724e-01	1.835180e-05	0.000000e+00	0.000000e+00	0.000000e+00	0.000000e+00	
3.743255e-01	-1.960319e-01	1.267476e-01	9.236659e+00	1.198378e+00	2.743508e+04	1.083714e+04	2.978553e+02	-2.626117e+00	2.123970e-01	1.835750e-05	0.000000e+00	0.000000e+00	0.000000e+00	0.000000e+00	
3.900895e-01	-1.938552e-01	1.268683e-01	9.026142e+00	1.316017e+00	2.745693e+04	1.085161e+04	2.979692e+02	-2.487920e+00	2.077698e-01	1.836291e-05	0.000000e+00	0.000000e+00	0.000000e+00	0.000000e+00	
9.542990e-01	-1.825427e-02	1.289864e-01	3.840383e+00	1.402077e+00	2.783253e+04	1.110710e+04	2.999764e+02	-4.690902e-02	9.128695e-02	1.845805e-05	0.000000e+00	0.000000e+00	0.000000e+00	0.000000e+00	
9.476630e-01	-2.070870e-02	1.289769e-01	3.884656e+00	1.453866e+00	2.783176e+04	1.110602e+04	2.999694e+02	-5.716321e-02	9.262302e-02	1.845772e-05	0.000000e+00	0.000000e+00	0.000000e+00	0.000000e+00	
4.059766e-01	-1.914169e-01	1.269814e-01	8.824083e+00	1.418697e+00	2.747742e+04	1.086516e+04	2.980756e+02	-2.358428e+00	2.033570e-01	1.836796e-05	0.000000e+00	0.000000e+00	0.000000e+00	0.000000e+00	
4.219629e-01	-1.887305e-01	1.270858e-01	8.629667e+00	1.512147e+00	2.749631e+04	1.087773e+04	2.981751e+02	-2.238365e+00	1.991496e-01	1.837269e-05	0.000000e+00	0.000000e+00	0.000000e+00	0.000000e+00	
9.406073e-01	-2.337976e-02	1.289624e-01	3.945383e+00	1.505012e+00	2.782997e+04	1.110433e+04	2.999574e+02	-7.332243e-02	9.430773e-02	1.845715e-05	0.000000e+00	0.000000e+00	0.000000e+00	0.000000e+00	
4.380248e-01	-1.858011e-01	1.271840e-01	8.440838e+00	1.599511e+00	2.751404e+04	1.088955e+04	2.982689e+02	-2.125368e+00	1.951017e-01	1.837714e-05	0.000000e+00	0.000000e+00	0.000000e+00	0.000000e+00	
4.541381e-01	-1.826335e-01	1.272781e-01	8.254824e+00	1.680883e+00	2.753103e+04	1.090090e+04	2.983589e+02	-2.016982e+00	1.911427e-01	1.838140e-05	0.000000e+00	0.000000e+00	0.000000e+00	0.000000e+00	
9.331391e-01	-2.625054e-02	1.289446e-01	4.019619e+00	1.549753e+00	2.782751e+04	1.110222e+04	2.999417e+02	-9.352603e-02	9.622936e-02	1.845640e-05	0.000000e+00	0.000000e+00	0.000000e+00	0.000000e+00	
9.252459e-01	-2.930439e-02	1.289251e-01	4.102096e+00	1.585669e+00	2.782468e+04	1.109987e+04	2.999237e+02	-1.159823e-01	9.825482e-02	1.845555e-05	0.000000e+00	0.000000e+00	0.000000e+00	0.000000e+00	
4.702995e-01	-1.792291e-01	1.273691e-01	8.070327e+00	1.756240e+00	2.754748e+04	1.091188e+04	2.984459e+02	-1.912060e+00	1.872374e-01	1.838554e-05	0.000000e+00	0.000000e+00	0.000000e+00	0.000000e+00	
4.864747e-01	-1.755961e-01	1.274576e-01	7.885729e+00	1.825879e+00	2.756344e+04	1.092257e+04	2.985310e+02	-1.809956e+00	1.833467e-01	1.838957e-05	0.000000e+00	0.000000e+00	0.000000e+00	0.000000e+00	
5.026498e-01	-1.717391e-01	1.275444e-01	7.700191e+00	1.888632e+00	2.757910e+04	1.093307e+04	2.986146e+02	-1.709577e+00	1.794407e-01	1.839354e-05	0.000000e+00	0.000000e+00	0.000000e+00	0.000000e+00	
5.188115e-01	-1.676669e-01	1.276308e-01	7.514189e+00	1.941002e+00	2.759469e+04	1.094350e+04	2.986971e+02	-1.609996e+00	1.755046e-01	1.839745e-05	0.000000e+00	0.000000e+00	0.000000e+00	0.000000e+00	
9.169520e-01	-3.250989e-02	1.289049e-01	4.187571e+00	1.612712e+00	2.782168e+04	1.109743e+04	2.999047e+02	-1.392854e-01	1.002728e-01	1.845465e-05	0.000000e+00	0.000000e+00	0.000000e+00	0.000000e+00	
9.082432e-01	-3.585463e-02	1.288847e-01	4.272365e+00	1.632499e+00	2.781861e+04	1.109498e+04	2.998856e+02	-1.626456e-01	1.022195e-01	1.845375e-05	0.000000e+00	0.000000e+00	0.000000e+00	0.000000e+00	
8.991326e-01	-3.932061e-02	1.288658e-01	4.353554e+00	1.646969e+00	2.781574e+04	1.109267e+04	2.998670e+02	-1.847564e-01	1.040490e-01	1.845287e-05	0.000000e+00	0.000000e+00	0.000000e+00	0.000000e+00	
8.896241e-01	-4.289993e-02	1.288477e-01	4.429495e+00	1.659887e+00	2.781296e+04	1.109045e+04	2.998491e+02	-2.059397e-01	1.057574e-01	1.845202e-05	0.000000e+00	0.000000e+00	0.000000e+00	0.000000e+00	
5.349280e-01	-1.634050e-01	1.277159e-01	7.330890e+00	1.981305e+00	2.761011e+04	1.095374e+04	2.987775e+02	-1.512128e+00	1.715924e-01	1.840126e-05	0.000000e+00	0.000000e+00	0.000000e+00	0.000000e+00	
5.509981e-01	-1.589727e-01	1.277975e-01	7.152402e+00	2.010455e+00	2.762490e+04	1.096357e+04	2.988548e+02	-1.418161e+00	1.677504e-01	1.840492e-05	0.000000e+00	0.000000e+00	0.000000e+00	0.000000e+00	
8.797148e-01	-4.659832e-02	1.288292e-01	4.500825e+00	1.674600e+00	2.781003e+04	1.108821e+04	2.998316e+02	-2.273553e-01	1.073850e-01	1.845119e-05	0.000000e+00	0.000000e+00	0.000000e+00	0.000000e+00	
8.694220e-01	-5.041655e-02	1.288101e-01	4.570100e+00	1.691885e+00	2.780693e+04	1.108590e+04	2.998136e+02	-2.494602e-01	1.089913e-01	1.845034e-05	0.000000e+00	0.000000e+00	0.000000e+00	0.000000e+00	
8.587630e-01	-5.435451e-02	1.287898e-01	4.639442e+00	1.711888e+00	2.780357e+04	1.108345e+04	2.997946e+02	-2.728389e-01	1.106220e-01	1.844944e-05	0.000000e+00	0.000000e+00	0.000000e+00	0.000000e+00	
5.669903e-01	-1.543979e-01	1.278752e-01	6.980036e+00	2.029827e+00	2.763899e+04	1.097295e+04	2.989285e+02	-1.328556e+00	1.640087e-01	1.840842e-05	0.000000e+00	0.000000e+00	0.000000e+00	0.000000e+00	
5.829036e-01	-1.497001e-01	1.279488e-01	6.814918e+00	2.040670e+00	2.765234e+04	1.098183e+04	2.989983e+02	-1.243740e+00	1.603938e-01	1.841172e-05	0.000000e+00	0.000000e+00	0.000000e+00	0.000000e+00	
5.987068e-01	-1.449073e-01	1.280182e-01	6.658589e+00	2.044270e+00	2.766494e+04	1.099018e+04	2.990635e+02	-1.163958e+00	1.569421e-01	1.841482e-05	0.000000e+00	0.000000e+00	0.000000e+00	0.000000e+00	
6.143888e-01	-1.400403e-01	1.280825e-01	6.510461e+00	2.043314e+00	2.767661e+04	1.099794e+04	2.991244e+02	-1.089815e+00	1.536553e-01	1.841770e-05	0.000000e+00	0.000000e+00	0.000000e+00	0.000000e+00	
6.299284e-01	-1.351150e-01	1.281422e-01	6.369639e+00	2.040020e+00	2.768743e+04	1.100515e+04	2.991812e+02	-1.020891e+00	1.505257e-01	1.842040e-05	0.000000e+00	0.000000e+00	0.000000e+00	0.000000e+00	
6.453142e-01	-1.301422e-01	1.281984e-01	6.233987e+00	2.034714e+00	2.769762e+04	1.101196e+04	2.992350e+02	-9.558658e-01	1.475061e-01	1.842294e-05	0.000000e+00	0.000000e+00	0.000000e+00	0.000000e+00	
6.605349e-01	-1.251320e-01	1.282518e-01	6.103629e+00	2.027548e+00	2.770731e+04	1.101842e+04	2.992858e+02	-8.941770e-01	1.445980e-01	1.842535e-05	0.000000e+00	0.000000e+00	0.000000e+00	0.000000e+00	
6.755695e-01	-1.200981e-01	1.283025e-01	5.977196e+00	2.018404e+00	2.771651e+04	1.102456e+04	2.993342e+02	-8.354833e-01	1.417698e-01	1.842764e-05	0.000000e+00	0.000000e+00	0.000000e+00	0.000000e+00	
8.477169e-01	-5.842446e-02	1.287681e-01	4.710016e+00	1.733952e+00	2.779989e+04	1.108083e+04	2.997743e+02	-2.978878e-01	1.122967e-01	1.844848e-05	0.000000e+00	0.000000e+00	0.000000e+00	0.000000e+00	
6.903975e-01	-1.150542e-01	1.283509e-01	5.854980e+00	2.007603e+00	2.772527e+04	1.103041e+04	2.993802e+02	-7.795892e-01	1.390285e-01	1.842982e-05	0.000000e+00	0.000000e+00	0.000000e+00	0.000000e+00	
7.050083e-01	-1.100103e-01	1.283973e-01	5.735807e+00	1.994427e+00	2.773367e+04	1.103602e+04	2.994243e+02	-7.259520e-01	1.363424e-01	1.843191e-05	0.000000e+00	0.000000e+00	0.000000e+00	0.000000e+00	
8.363209e-01	-6.261526e-02	1.287447e-01	4.783330e+00	1.757941e+00	2.779588e+04	1.107801e+04	2.997523e+02	-3.248318e-01	1.140464e-01	1.844744e-05	0.000000e+00	0.000000e+00	0.000000e+00	0.000000e+00	
8.245836e-01	-6.692478e-02	1.287198e-01	4.859133e+00	1.783208e+00	2.779156e+04	1.107500e+04	2.997288e+02	-3.536045e-01	1.158606e-01	1.844633e-05	0.000000e+00	0.000000e+00	0.000000e+00	0.000000e+00	
8.124942e-01	-7.135679e-02	1.286929e-01	4.938317e+00	1.809662e+00	2.778682e+04	1.107174e+04	2.997034e+02	-3.847426e-01	1.177583e-01	1.844513e-05	0.000000e+00	0.000000e+00	0.000000e+00	0.000000e+00	
8.000812e-01	-7.589996e-02	1.286638e-01	5.021348e+00	1.836942e+00	2.778166e+04	1.106822e+04	2.996761e+02	-4.183041e-01	1.197465e-01	1.844383e-05	0.000000e+00	0.000000e+00	0.000000e+00	0.000000e+00	
7.193922e-01	-1.049780e-01	1.284416e-01	5.620336e+00	1.978903e+00	2.774169e+04	1.104139e+04	2.994666e+02	-6.746878e-01	1.337246e-01	1.843391e-05	0.000000e+00	0.000000e+00	0.000000e+00	0.000000e+00	
7.335207e-01	-9.997816e-02	1.284844e-01	5.509295e+00	1.959981e+00	2.774945e+04	1.104655e+04	2.995068e+02	-6.253520e-01	1.311812e-01	1.843582e-05	0.000000e+00	0.000000e+00	0.000000e+00	0.000000e+00	
7.473954e-01	-9.502071e-02	1.285244e-01	5.402179e+00	1.938934e+00	2.775667e+04	1.105140e+04	2.995451e+02	-5.790234e-01	1.287111e-01	1.843763e-05	0.000000e+00	0.000000e+00	0.000000e+00	0.000000e+00	
7.610077e-01	-9.011847e-02	1.285629e-01	5.300088e+00	1.915590e+00	2.776361e+04	1.105604e+04	2.995810e+02	-5.347630e-01	1.263344e-01	1.843933e-05	0.000000e+00	0.000000e+00	0.000000e+00	0.000000e+00	
7.873537e-01	-8.054883e-02	1.286322e-01	5.109089e+00	1.864248e+00	2.777603e+04	1.106442e+04	2.996466e+02	-4.546232e-01	1.218380e-01	1.844243e-05	0.000000e+00	0.000000e+00	0.000000e+00	0.000000e+00	
7.743298e-01	-8.529070e-02	1.285985e-01	5.202170e+00	1.890564e+00	2.776999e+04	1.106035e+04	2.996149e+02	-4.935488e-01	1.240382e-01	1.844093e-05	0.000000e+00	0.000000e+00	0.000000e+00	0.000000e+00	
9.890844e-01	-3.749636e-03	1.296191e-01	3.301198e+00	9.959657e-01	2.800368e+04	1.118313e+04	3.005556e+02	6.794952e-01	7.654348e-02	1.848544e-05	0.000000e+00	0.000000e+00	0.000000e+00	0.000000e+00	
9.835138e-03	-1.173382e-02	1.282167e-01	-4.650694e+00	-5.290892e+00	2.772965e+04	1.101446e+04	2.992600e+02	-9.320291e-01	1.584242e-01	1.842412e-05	0.000000e+00	0.000000e+00	0.000000e+00	0.000000e+00	
9.854708e-01	-4.776418e-03	1.296208e-01	3.336336e+00	8.852704e-01	2.800387e+04	1.118317e+04	3.005525e+02	6.798547e-01	7.662322e-02	1.848529e-05	0.000000e+00	0.000000e+00	0.000000e+00	0.000000e+00	
1.424138e-02	-7.446583e-03	1.287906e-01	-4.544155e+00	-3.722390e+00	2.783742e+04	1.108138e+04	2.997369e+02	-2.925714e-01	1.314139e-01	1.844671e-05	0.000000e+00	0.000000e+00	0.000000e+00	0.000000e+00	
9.814000e-01	-5.799758e-03	1.295911e-01	3.415399e+00	8.101802e-01	2.799760e+04	1.118002e+04	3.005370e+02	6.498424e-01	7.793923e-02	1.848456e-05	0.000000e+00	0.000000e+00	0.000000e+00	0.000000e+00	
1.948044e-02	-3.834406e-03	1.292583e-01	-3.997042e+00	-2.361947e+00	2.792476e+04	1.113655e+04	3.001393e+02	2.345049e-01	1.034206e-01	1.846575e-05	0.000000e+00	0.000000e+00	0.000000e+00	0.000000e+00	
9.768522e-01	-6.818620e-03	1.295662e-01	3.516249e+00	7.592676e-01	2.799264e+04	1.117708e+04	3.005157e+02	6.217396e-01	7.989164e-02	1.848355e-05	0.000000e+00	0.000000e+00	0.000000e+00	0.000000e+00	
2.546083e-02	-8.236033e-04	1.295353e-01	-3.185868e+00	-1.414742e+00	2.797485e+04	1.117118e+04	3.004286e+02	5.653520e-01	7.744669e-02	1.847943e-05	0.000000e+00	0.000000e+00	0.000000e+00	0.000000e+00	
3.203755e-02	1.707486e-03	1.297129e-01	-2.363758e+00	-7.998356e-01	2.800724e+04	1.119330e+04	3.006113e+02	7.766496e-01	5.534877e-02	1.848807e-05	0.000000e+00	0.000000e+00	0.000000e+00	0.000000e+00	
9.718555e-01	-7.859624e-03	1.295341e-01	3.625845e+00	7.546157e-01	2.798634e+04	1.117336e+04	3.004900e+02	5.861759e-01	8.227519e-02	1.848234e-05	0.000000e+00	0.000000e+00	0.000000e+00	0.000000e+00	
3.916171e-02	3.763271e-03	1.298244e-01	-1.612595e+00	-4.012460e-01	2.802802e+04	1.120695e+04	3.007195e+02	9.071474e-01	3.681996e-02	1.849319e-05	0.000000e+00	0.000000e+00	0.000000e+00	0.000000e+00	
9.663888e-01	-8.994546e-03	1.295074e-01	3.719660e+00	7.982914e-01	2.798118e+04	1.117012e+04	3.004649e+02	5.552309e-01	8.453589e-02	1.848115e-05	0.000000e+00	0.000000e+00	0.000000e+00	0.000000e+00	
9.604691e-01	-1.030125e-02	1.294908e-01	3.776784e+00	8.773791e-01	2.797799e+04	1.116798e+04	3.004457e+02	5.347521e-01	8.617175e-02	1.848024e-05	0.000000e+00	0.000000e+00	0.000000e+00	0.000000e+00	
4.680418e-02	5.336667e-03	1.298808e-01	-9.449144e-01	-1.631741e-01	2.803863e+04	1.121404e+04	3.007788e+02	9.748169e-01	2.123517e-02	1.849599e-05	0.000000e+00	0.000000e+00	0.000000e+00	0.000000e+00	
5.490741e-02	6.440179e-03	1.299048e-01	-3.679364e-01	-4.010869e-02	2.804334e+04	1.121713e+04	3.008062e+02	1.004326e+00	8.194465e-03	1.849729e-05	0.000000e+00	0.000000e+00	0.000000e+00	0.000000e+00	
9.540933e-01	-1.184847e-02	1.294879e-01	3.786036e+00	9.656171e-01	2.797739e+04	1.116738e+04	3.004363e+02	5.290143e-01	8.683911e-02	1.847980e-05	0.000000e+00	0.000000e+00	0.000000e+00	0.000000e+00	
6.343257e-02	7.095230e-03	1.299090e-01	1.207318e-01	5.858114e-03	2.804448e+04	1.121777e+04	3.008137e+02	1.010470e+00	2.676057e-03	1.849764e-05	0.000000e+00	0.000000e+00	0.000000e+00	0.000000e+00	
9.472667e-01	-1.366694e-02	1.294959e-01	3.750746e+00	1.037178e+00	2.797878e+04	1.116812e+04	3.004377e+02	5.361510e-01	8.648399e-02	1.847987e-05	0.000000e+00	0.000000e+00	0.000000e+00	0.000000e+00	
9.399951e-01	-1.574696e-02	1.295109e-01	3.685312e+00	1.077643e+00	2.798138e+04	1.116978e+04	3.004475e+02	5.520009e-01	8.532002e-02	1.848033e-05	0.000000e+00	0.000000e+00	0.000000e+00	0.000000e+00	
7.237286e-02	7.332539e-03	1.299014e-01	5.294002e-01	3.275940e-03	2.804344e+04	1.121695e+04	3.008093e+02	1.002598e+00	1.172153e-02	1.849743e-05	0.000000e+00	0.000000e+00	0.000000e+00	0.000000e+00	
9.322861e-01	-1.804926e-02	1.295289e-01	3.606315e+00	1.085262e+00	2.798443e+04	1.117187e+04	3.004622e+02	5.719793e-01	8.367166e-02	1.848102e-05	0.000000e+00	0.000000e+00	0.000000e+00	0.000000e+00	
9.241278e-01	-2.052446e-02	1.295459e-01	3.527932e+00	1.066615e+00	2.798727e+04	1.117394e+04	3.004782e+02	5.916920e-01	8.187181e-02	1.848178e-05	0.000000e+00	0.000000e+00	0.000000e+00	0.000000e+00	
8.169832e-02	7.201346e-03	1.298884e-01	8.696788e-01	-2.675497e-02	2.804146e+04	1.121542e+04	3.007983e+02	9.880054e-01	1.926670e-02	1.849691e-05	0.000000e+00	0.000000e+00	0.000000e+00	0.000000e+00	
9.140383e-02	6.732917e-03	1.298721e-01	1.153503e+00	-7.217730e-02	2.803884e+04	1.121348e+04	3.007841e+02	9.694948e-01	2.559618e-02	1.849624e-05	0.000000e+00	0.000000e+00	0.000000e+00	0.000000e+00	
1.014763e-01	5.948750e-03	1.298550e-01	1.390737e+00	-1.251594e-01	2.803608e+04	1.121143e+04	3.007686e+02	9.498924e-01	3.092949e-02	1.849551e-05	0.000000e+00	0.000000e+00	0.000000e+00	0.000000e+00	
9.155475e-01	-2.311284e-02	1.295609e-01	3.457818e+00	1.032442e+00	2.798973e+04	1.117579e+04	3.004932e+02	6.094054e-01	8.015045e-02	1.848249e-05	0.000000e+00	0.000000e+00	0.000000e+00	0.000000e+00	
9.065337e-01	-2.577977e-02	1.295734e-01	3.398409e+00	9.921558e-01	2.799174e+04	1.117735e+04	3.005061e+02	6.243099e-01	7.862229e-02	1.848310e-05	0.000000e+00	0.000000e+00	0.000000e+00	0.000000e+00	
1.118924e-01	4.873404e-03	1.298382e-01	1.590118e+00	-1.819419e-01	2.803335e+04	1.120939e+04	3.007529e+02	9.304575e-01	3.545663e-02	1.849477e-05	0.000000e+00	0.000000e+00	0.000000e+00	0.000000e+00	
1.226615e-01	3.511207e-03	1.298218e-01	1.757963e+00	-2.404725e-01	2.803066e+04	1.120741e+04	3.007378e+02	9.115266e-01	3.931378e-02	1.849405e-05	0.000000e+00	0.000000e+00	0.000000e+00	0.000000e+00	
8.971042e-01	-2.849845e-02	1.295846e-01	3.347685e+00	9.518815e-01	2.799354e+04	1.117872e+04	3.005171e+02	6.374100e-01	7.728415e-02	1.848362e-05	0.000000e+00	0.000000e+00	0.000000e+00	0.000000e+00	
8.872672e-01	-3.125737e-02	1.295944e-01	3.302860e+00	9.136541e-01	2.799512e+04	1.117993e+04	3.005266e+02	6.489048e-01	7.608952e-02	1.848407e-05	0.000000e+00	0.000000e+00	0.000000e+00	0.000000e+00	
8.770203e-01	-3.405277e-02	1.296041e-01	3.260986e+00	8.777169e-01	2.799671e+04	1.118108e+04	3.005353e+02	6.599706e-01	7.497582e-02	1.848448e-05	0.000000e+00	0.000000e+00	0.000000e+00	0.000000e+00	
8.663811e-01	-3.687640e-02	1.296133e-01	3.220199e+00	8.428391e-01	2.799821e+04	1.118219e+04	3.005436e+02	6.705039e-01	7.389566e-02	1.848487e-05	0.000000e+00	0.000000e+00	0.000000e+00	0.000000e+00	