TITLE = "Visualization of the volumetric solution"
VARIABLES = "x""y""Conservative_1""Conservative_2""Conservative_3""Conservative_4""Pressure""Temperature""C<sub>p</sub>""Mach""<greek>m</greek>""C<sub>f</sub>_x""C<sub>f</sub>_y""h""y<sup>+</sup>"
ZONE NODES= 5233, ELEMENTS= 10216, DATAPACKING=POINT, ZONETYPE=FEQUADRILATERAL
1.002199e+00	-1.282514e-03	1.290883e-01	7.396247e-02	1.789618e+00	2.780848e+04	1.111842e+04	3.000451e+02	6.126849e-02	3.995784e-02	1.846129e-05	0.000000e+00	0.000000e+00	0.000000e+00	0.000000e+00	
1.002611e+00	-8.932374e-04	1.290494e-01	-1.138530e-01	1.504424e+00	2.779872e+04	1.111596e+04	3.000691e+02	3.776345e-02	3.366626e-02	1.846243e-05	0.000000e+00	0.000000e+00	0.000000e+00	0.000000e+00	
1.002291e+00	-1.592870e-03	1.289502e-01	2.208866e-01	1.781240e+00	2.777864e+04	1.110646e+04	3.000434e+02	-5.300387e-02	4.008421e-02	1.846122e-05	0.000000e+00	0.000000e+00	0.000000e+00	0.000000e+00	
1.001805e+00	-1.525938e-03	1.288824e-01	1.459926e-01	2.215790e+00	2.776659e+04	1.109898e+04	2.999991e+02	-1.244266e-01	4.962115e-02	1.845912e-05	0.000000e+00	0.000000e+00	0.000000e+00	0.000000e+00	
1.002470e+00	-1.983986e-03	1.289707e-01	3.644699e-01	1.756835e+00	2.778317e+04	1.110827e+04	3.000446e+02	-3.566950e-02	4.006346e-02	1.846127e-05	0.000000e+00	0.000000e+00	0.000000e+00	0.000000e+00	
1.002686e+00	-2.478811e-03	1.289713e-01	5.684293e-01	1.736703e+00	2.778385e+04	1.110836e+04	3.000455e+02	-3.483639e-02	4.080269e-02	1.846131e-05	0.000000e+00	0.000000e+00	0.000000e+00	0.000000e+00	
1.002759e+00	-1.438835e-03	1.289002e-01	2.699601e-01	1.573409e+00	2.776671e+04	1.110273e+04	3.000590e+02	-8.863870e-02	3.566450e-02	1.846195e-05	0.000000e+00	0.000000e+00	0.000000e+00	0.000000e+00	
1.003175e+00	-1.022347e-03	1.289580e-01	1.502698e-01	1.456889e+00	2.777853e+04	1.110809e+04	3.000691e+02	-3.746438e-02	3.270520e-02	1.846243e-05	0.000000e+00	0.000000e+00	0.000000e+00	0.000000e+00	
1.003071e+00	-1.981655e-03	1.289653e-01	4.624289e-01	1.599949e+00	2.778097e+04	1.110809e+04	3.000521e+02	-3.744628e-02	3.718842e-02	1.846163e-05	0.000000e+00	0.000000e+00	0.000000e+00	0.000000e+00	
1.003124e+00	-6.257720e-04	1.289326e-01	-2.170576e-01	1.390056e+00	2.777271e+04	1.110602e+04	3.000723e+02	-5.724972e-02	3.142237e-02	1.846258e-05	0.000000e+00	0.000000e+00	0.000000e+00	0.000000e+00	
1.002158e+00	-9.405711e-04	1.288080e-01	-1.657445e-01	1.700959e+00	2.774825e+04	1.109477e+04	3.000582e+02	-1.647187e-01	3.820773e-02	1.846192e-05	0.000000e+00	0.000000e+00	0.000000e+00	0.000000e+00	
1.001764e+00	-1.147577e-03	1.287755e-01	-8.555671e-02	2.210222e+00	2.774381e+04	1.108993e+04	3.000031e+02	-2.109570e-01	4.946706e-02	1.845931e-05	0.000000e+00	0.000000e+00	0.000000e+00	0.000000e+00	
1.002635e+00	-3.367396e-04	1.290600e-01	-9.732251e-01	1.184826e+00	2.779977e+04	1.111626e+04	3.000528e+02	4.067378e-02	3.421254e-02	1.846166e-05	0.000000e+00	0.000000e+00	0.000000e+00	0.000000e+00	
1.002141e+00	-6.017335e-04	1.289974e-01	-7.834551e-01	1.523820e+00	2.778869e+04	1.111093e+04	3.000541e+02	-1.033961e-02	3.825038e-02	1.846172e-05	0.000000e+00	0.000000e+00	0.000000e+00	0.000000e+00	
1.001397e+00	-1.354642e-03	1.289867e-01	9.468146e-02	3.179757e+00	2.779549e+04	1.110250e+04	2.998517e+02	-9.079299e-02	7.104599e-02	1.845214e-05	0.000000e+00	0.000000e+00	0.000000e+00	0.000000e+00	
1.001943e+00	-1.943705e-03	1.288912e-01	3.220546e-01	2.086838e+00	2.776809e+04	1.110032e+04	3.000148e+02	-1.116773e-01	4.717985e-02	1.845986e-05	0.000000e+00	0.000000e+00	0.000000e+00	0.000000e+00	
1.001499e+00	-1.771922e-03	1.289670e-01	2.823423e-01	2.659263e+00	2.778800e+04	1.110411e+04	2.999408e+02	-7.545481e-02	5.972420e-02	1.845636e-05	0.000000e+00	0.000000e+00	0.000000e+00	0.000000e+00	
1.002117e+00	-2.378238e-03	1.288500e-01	5.558253e-01	1.942732e+00	2.775924e+04	1.109736e+04	3.000306e+02	-1.399740e-01	4.516290e-02	1.846061e-05	0.000000e+00	0.000000e+00	0.000000e+00	0.000000e+00	
1.002299e+00	-2.866624e-03	1.289324e-01	7.772960e-01	1.833617e+00	2.777745e+04	1.110483e+04	3.000406e+02	-6.860037e-02	4.448299e-02	1.846108e-05	0.000000e+00	0.000000e+00	0.000000e+00	0.000000e+00	
1.002918e+00	-2.997965e-03	1.289628e-01	8.010024e-01	1.696371e+00	2.778294e+04	1.110772e+04	3.000481e+02	-4.097426e-02	4.189077e-02	1.846144e-05	0.000000e+00	0.000000e+00	0.000000e+00	0.000000e+00	
1.003332e+00	-2.537596e-03	1.289404e-01	6.550468e-01	1.626296e+00	2.777638e+04	1.110578e+04	3.000478e+02	-5.946730e-02	3.915738e-02	1.846143e-05	0.000000e+00	0.000000e+00	0.000000e+00	0.000000e+00	
1.003367e+00	-1.521498e-03	1.290261e-01	3.709958e-01	1.472336e+00	2.779313e+04	1.111368e+04	3.000617e+02	1.596330e-02	3.388773e-02	1.846208e-05	0.000000e+00	0.000000e+00	0.000000e+00	0.000000e+00	
1.003708e+00	-7.426047e-04	1.290639e-01	-2.272799e-02	1.368487e+00	2.780049e+04	1.111730e+04	3.000716e+02	5.052102e-02	3.053759e-02	1.846255e-05	0.000000e+00	0.000000e+00	0.000000e+00	0.000000e+00	
1.003727e+00	-2.033994e-03	1.289795e-01	5.767488e-01	1.520894e+00	2.778353e+04	1.110931e+04	3.000520e+02	-2.578178e-02	3.631675e-02	1.846162e-05	0.000000e+00	0.000000e+00	0.000000e+00	0.000000e+00	
1.003176e+00	-1.031835e-04	1.288733e-01	-7.739596e-01	1.147508e+00	2.775829e+04	1.110034e+04	3.000572e+02	-1.114250e-01	3.092859e-02	1.846187e-05	0.000000e+00	0.000000e+00	0.000000e+00	0.000000e+00	
1.002791e+00	2.408249e-04	1.291718e-01	-1.388848e+00	7.837484e-01	2.782052e+04	1.112427e+04	3.000089e+02	1.171806e-01	3.555520e-02	1.845958e-05	0.000000e+00	0.000000e+00	0.000000e+00	0.000000e+00	
1.001746e+00	-8.017345e-04	1.293602e-01	-9.506493e-01	1.979506e+00	2.786996e+04	1.114053e+04	3.000097e+02	2.724985e-01	4.888823e-02	1.845962e-05	0.000000e+00	0.000000e+00	0.000000e+00	0.000000e+00	
1.001384e+00	-9.938412e-04	1.291678e-01	-8.063822e-01	3.205185e+00	2.783587e+04	1.111743e+04	2.998338e+02	5.184682e-02	7.371175e-02	1.845130e-05	0.000000e+00	0.000000e+00	0.000000e+00	0.000000e+00	
1.002334e+00	5.875492e-04	1.284924e-01	-5.307274e-01	8.603021e-01	2.767014e+04	1.106646e+04	3.000279e+02	-4.351298e-01	2.265551e-02	1.846048e-05	0.000000e+00	0.000000e+00	0.000000e+00	0.000000e+00	
1.002258e+00	9.941299e-05	1.287118e-01	-1.514234e+00	7.173151e-01	2.772281e+04	1.108476e+04	3.000118e+02	-2.603055e-01	3.749033e-02	1.845972e-05	0.000000e+00	0.000000e+00	0.000000e+00	0.000000e+00	
1.002173e+00	-2.935302e-04	1.285590e-01	-1.477005e+00	1.014663e+00	2.769319e+04	1.107228e+04	3.000302e+02	-3.795389e-01	4.014136e-02	1.846059e-05	0.000000e+00	0.000000e+00	0.000000e+00	0.000000e+00	
1.001742e+00	-4.380368e-04	1.293688e-01	-2.078306e+00	1.322824e+00	2.787201e+04	1.113942e+04	2.999600e+02	2.619260e-01	5.484741e-02	1.845727e-05	0.000000e+00	0.000000e+00	0.000000e+00	0.000000e+00	
1.001042e+00	-1.159964e-03	1.283652e-01	-1.103499e-01	4.556921e+00	2.767357e+04	1.103706e+04	2.995272e+02	-7.160934e-01	1.023492e-01	1.843678e-05	0.000000e+00	0.000000e+00	0.000000e+00	0.000000e+00	
1.003593e+00	-3.180477e-03	1.289786e-01	8.295837e-01	1.620362e+00	2.778568e+04	1.110913e+04	3.000494e+02	-2.747346e-02	4.064425e-02	1.846150e-05	0.000000e+00	0.000000e+00	0.000000e+00	0.000000e+00	
1.001099e+00	-1.589829e-03	1.291088e-01	6.436424e-01	4.025786e+00	2.782905e+04	1.110587e+04	2.996589e+02	-5.859536e-02	9.099409e-02	1.844302e-05	0.000000e+00	0.000000e+00	0.000000e+00	0.000000e+00	
1.000730e+00	-1.400067e-03	1.278961e-01	1.461050e+00	5.923819e+00	2.758990e+04	1.097775e+04	2.990103e+02	-1.282733e+00	1.376181e-01	1.841230e-05	0.000000e+00	0.000000e+00	0.000000e+00	0.000000e+00	
1.001596e+00	-2.238221e-03	1.291162e-01	4.896483e-01	2.376481e+00	2.781919e+04	1.111856e+04	2.999840e+02	6.258755e-02	5.412325e-02	1.845841e-05	0.000000e+00	0.000000e+00	0.000000e+00	0.000000e+00	
1.001151e+00	-2.062823e-03	1.281978e-01	8.781551e-01	3.017074e+00	2.762604e+04	1.103501e+04	2.998627e+02	-7.356351e-01	7.060792e-02	1.845266e-05	0.000000e+00	0.000000e+00	0.000000e+00	0.000000e+00	
1.001735e+00	-2.755596e-03	1.289254e-01	8.479633e-01	2.045770e+00	2.777762e+04	1.110344e+04	3.000195e+02	-8.184634e-02	4.946782e-02	1.846008e-05	0.000000e+00	0.000000e+00	0.000000e+00	0.000000e+00	
1.001942e+00	-3.256699e-03	1.289475e-01	1.030181e+00	1.822818e+00	2.778241e+04	1.110616e+04	3.000415e+02	-5.583033e-02	4.676054e-02	1.846113e-05	0.000000e+00	0.000000e+00	0.000000e+00	0.000000e+00	
1.002533e+00	-3.432766e-03	1.289683e-01	1.010195e+00	1.705325e+00	2.778598e+04	1.110830e+04	3.000508e+02	-3.542378e-02	4.425792e-02	1.846157e-05	0.000000e+00	0.000000e+00	0.000000e+00	0.000000e+00	
1.003403e+00	-3.604866e-03	1.289528e-01	1.024395e+00	1.613734e+00	2.778195e+04	1.110711e+04	3.000549e+02	-4.674715e-02	4.268506e-02	1.846176e-05	0.000000e+00	0.000000e+00	0.000000e+00	0.000000e+00	
1.004050e+00	-2.644882e-03	1.289586e-01	7.352042e-01	1.545179e+00	2.777996e+04	1.110744e+04	3.000503e+02	-4.362325e-02	3.821175e-02	1.846154e-05	0.000000e+00	0.000000e+00	0.000000e+00	0.000000e+00	
1.003832e+00	8.028770e-08	1.290433e-01	-6.797706e-01	1.213476e+00	2.779454e+04	1.111482e+04	3.000525e+02	2.685032e-02	3.103945e-02	1.846165e-05	0.000000e+00	0.000000e+00	0.000000e+00	0.000000e+00	
1.004048e+00	-1.419932e-03	1.289098e-01	4.362258e-01	1.433534e+00	2.776779e+04	1.110363e+04	3.000609e+02	-8.000311e-02	3.347333e-02	1.846205e-05	0.000000e+00	0.000000e+00	0.000000e+00	0.000000e+00	
1.004427e+00	-6.254646e-04	1.289611e-01	2.904648e-02	1.356717e+00	2.777810e+04	1.110839e+04	3.000701e+02	-3.459828e-02	3.030191e-02	1.846248e-05	0.000000e+00	0.000000e+00	0.000000e+00	0.000000e+00	
1.004480e+00	-2.024707e-03	1.290062e-01	6.385984e-01	1.470667e+00	2.778903e+04	1.111163e+04	3.000527e+02	-3.638742e-03	3.579028e-02	1.846166e-05	0.000000e+00	0.000000e+00	0.000000e+00	0.000000e+00	
1.003363e+00	4.677824e-04	1.289328e-01	-1.146822e+00	9.668337e-01	2.776786e+04	1.110365e+04	3.000081e+02	-7.980023e-02	3.350499e-02	1.845955e-05	0.000000e+00	0.000000e+00	0.000000e+00	0.000000e+00	
1.002875e+00	8.072455e-04	1.290998e-01	-6.022508e-01	9.317665e-01	2.779907e+04	1.111772e+04	2.999996e+02	5.460509e-02	2.475003e-02	1.845914e-05	0.000000e+00	0.000000e+00	0.000000e+00	0.000000e+00	
1.004040e+00	6.882339e-04	1.289957e-01	-1.124734e+00	1.022839e+00	2.778112e+04	1.110886e+04	3.000024e+02	-3.004262e-02	3.394180e-02	1.845928e-05	0.000000e+00	0.000000e+00	0.000000e+00	0.000000e+00	
1.002398e+00	1.095216e-03	1.293637e-01	1.739094e+00	2.482297e+00	2.786512e+04	1.113185e+04	2.997680e+02	1.895426e-01	6.750178e-02	1.844818e-05	0.000000e+00	0.000000e+00	0.000000e+00	0.000000e+00	
1.001384e+00	-6.429956e-04	1.278317e-01	-1.911423e+00	2.027793e+00	2.754431e+04	1.100558e+04	2.999193e+02	-1.016868e+00	6.279058e-02	1.845534e-05	0.000000e+00	0.000000e+00	0.000000e+00	0.000000e+00	
1.001052e+00	-8.433661e-04	1.286652e-01	-2.583661e+00	4.043174e+00	2.774105e+04	1.106063e+04	2.994670e+02	-4.908520e-01	1.074960e-01	1.843393e-05	0.000000e+00	0.000000e+00	0.000000e+00	0.000000e+00	
1.001917e+00	8.276535e-04	1.296879e-01	2.364782e+00	3.451001e+00	2.794784e+04	1.115214e+04	2.995637e+02	3.834835e-01	9.297066e-02	1.843851e-05	0.000000e+00	0.000000e+00	0.000000e+00	0.000000e+00	
1.001875e+00	3.722851e-04	1.290868e-01	-3.210818e-01	1.337001e+00	2.780095e+04	1.111745e+04	3.000224e+02	5.200395e-02	3.067608e-02	1.846022e-05	0.000000e+00	0.000000e+00	0.000000e+00	0.000000e+00	
1.001806e+00	-3.903301e-05	1.296148e-01	-2.103797e+00	8.197206e-01	2.792094e+04	1.116051e+04	2.999576e+02	4.634173e-01	5.017211e-02	1.845716e-05	0.000000e+00	0.000000e+00	0.000000e+00	0.000000e+00	
1.001447e+00	-2.537531e-04	1.279774e-01	-2.322630e+00	1.276571e+00	2.757189e+04	1.101778e+04	2.999102e+02	-9.002721e-01	5.965161e-02	1.845491e-05	0.000000e+00	0.000000e+00	0.000000e+00	0.000000e+00	
1.000704e+00	-9.934300e-04	1.297117e-01	-2.277575e+00	6.877429e+00	2.799607e+04	1.111750e+04	2.985784e+02	5.249943e-02	1.612375e-01	1.839182e-05	0.000000e+00	0.000000e+00	0.000000e+00	0.000000e+00	
1.000351e+00	-1.274307e-03	1.288422e-01	1.471631e+00	9.378257e+00	2.784906e+04	1.099974e+04	2.974094e+02	-1.072652e+00	2.131180e-01	1.833632e-05	0.000000e+00	0.000000e+00	0.000000e+00	0.000000e+00	
3.124498e-03	-4.958983e-02	1.207219e-01	6.672237e+00	-1.384689e+01	2.631989e+04	1.013655e+04	2.925058e+02	-9.319682e+00	3.713544e-01	1.810238e-05	0.000000e+00	0.000000e+00	0.000000e+00	0.000000e+00	
2.537646e-03	-4.826432e-02	1.204081e-01	6.006244e+00	-1.440115e+01	2.626213e+04	1.010045e+04	2.922237e+02	-9.664613e+00	3.781455e-01	1.808886e-05	0.000000e+00	0.000000e+00	0.000000e+00	0.000000e+00	
2.003081e-03	-4.692571e-02	1.207562e-01	5.223952e+00	-1.467558e+01	2.633677e+04	1.013281e+04	2.923146e+02	-9.355475e+00	3.763722e-01	1.809322e-05	0.000000e+00	0.000000e+00	0.000000e+00	0.000000e+00	
1.004448e+00	-3.640128e-03	1.289675e-01	9.806100e-01	1.537147e+00	2.778394e+04	1.110842e+04	3.000560e+02	-3.428401e-02	4.071248e-02	1.846181e-05	0.000000e+00	0.000000e+00	0.000000e+00	0.000000e+00	
1.000738e+00	-1.890834e-03	1.294729e-01	1.437745e+00	4.357395e+00	2.791228e+04	1.113239e+04	2.995297e+02	1.947528e-01	1.021456e-01	1.843690e-05	0.000000e+00	0.000000e+00	0.000000e+00	0.000000e+00	
1.000393e+00	-1.641247e-03	1.274634e-01	3.883520e+00	5.585647e+00	2.750618e+04	1.092985e+04	2.987165e+02	-1.740351e+00	1.540417e-01	1.839837e-05	0.000000e+00	0.000000e+00	0.000000e+00	0.000000e+00	
1.001206e+00	-2.530846e-03	1.288853e-01	1.044941e+00	2.545311e+00	2.777234e+04	1.109719e+04	2.999437e+02	-1.415933e-01	6.148799e-02	1.845650e-05	0.000000e+00	0.000000e+00	0.000000e+00	0.000000e+00	
1.000761e+00	-2.350441e-03	1.292816e-01	1.222362e+00	3.067725e+00	2.786101e+04	1.112753e+04	2.998420e+02	1.483248e-01	7.358397e-02	1.845169e-05	0.000000e+00	0.000000e+00	0.000000e+00	0.000000e+00	
1.001356e+00	-3.177248e-03	1.289262e-01	1.200573e+00	2.054847e+00	2.777980e+04	1.110313e+04	3.000093e+02	-8.477704e-02	5.316129e-02	1.845960e-05	0.000000e+00	0.000000e+00	0.000000e+00	0.000000e+00	
1.001629e+00	-3.712269e-03	1.288784e-01	1.259865e+00	1.803331e+00	2.776907e+04	1.110012e+04	3.000390e+02	-1.135884e-01	4.915544e-02	1.846101e-05	0.000000e+00	0.000000e+00	0.000000e+00	0.000000e+00	
1.000049e+00	-1.488339e-03	1.296834e-01	5.388866e+00	5.334531e+00	2.799386e+04	1.110887e+04	2.984117e+02	-2.995366e-02	1.688425e-01	1.838391e-05	0.000000e+00	0.000000e+00	0.000000e+00	0.000000e+00	
9.997621e-01	-1.104662e-03	1.313474e-01	6.253747e+00	1.885233e+00	2.833325e+04	1.126834e+04	2.988605e+02	1.493592e+00	1.434906e-01	1.840520e-05	0.000000e+00	0.000000e+00	0.000000e+00	0.000000e+00	
1.002256e+00	-3.801971e-03	1.289358e-01	1.230437e+00	1.702323e+00	2.778078e+04	1.110547e+04	3.000500e+02	-6.245996e-02	4.691293e-02	1.846153e-05	0.000000e+00	0.000000e+00	0.000000e+00	0.000000e+00	
1.002917e+00	-4.125187e-03	1.289455e-01	1.247342e+00	1.609852e+00	2.778244e+04	1.110654e+04	3.000566e+02	-5.221473e-02	4.548162e-02	1.846184e-05	0.000000e+00	0.000000e+00	0.000000e+00	0.000000e+00	
1.003948e+00	-4.396732e-03	1.289612e-01	1.283080e+00	1.531449e+00	2.778584e+04	1.110815e+04	3.000632e+02	-3.688818e-02	4.461294e-02	1.846215e-05	0.000000e+00	0.000000e+00	0.000000e+00	0.000000e+00	
1.004993e+00	-2.855765e-03	1.289862e-01	8.117857e-01	1.468464e+00	2.778564e+04	1.110989e+04	3.000522e+02	-2.023168e-02	3.746090e-02	1.846163e-05	0.000000e+00	0.000000e+00	0.000000e+00	0.000000e+00	
1.004597e+00	1.571062e-04	1.289469e-01	-6.240306e-01	1.206432e+00	2.777354e+04	1.110656e+04	3.000535e+02	-5.207919e-02	3.033375e-02	1.846169e-05	0.000000e+00	0.000000e+00	0.000000e+00	0.000000e+00	
1.004846e+00	-1.314333e-03	1.290329e-01	4.456387e-01	1.413590e+00	2.779417e+04	1.111426e+04	3.000617e+02	2.153926e-02	3.307835e-02	1.846208e-05	0.000000e+00	0.000000e+00	0.000000e+00	0.000000e+00	
1.005245e+00	-4.818387e-04	1.289784e-01	9.701637e-03	1.326952e+00	2.778170e+04	1.110995e+04	3.000720e+02	-1.964803e-02	2.962704e-02	1.846257e-05	0.000000e+00	0.000000e+00	0.000000e+00	0.000000e+00	
1.005387e+00	-2.030420e-03	1.289690e-01	6.845362e-01	1.404667e+00	2.778070e+04	1.110849e+04	3.000546e+02	-3.358444e-02	3.489075e-02	1.846175e-05	0.000000e+00	0.000000e+00	0.000000e+00	0.000000e+00	
1.005607e+00	-3.661400e-03	1.289743e-01	9.972852e-01	1.442208e+00	2.778444e+04	1.110901e+04	3.000562e+02	-2.863916e-02	3.915047e-02	1.846182e-05	0.000000e+00	0.000000e+00	0.000000e+00	0.000000e+00	
1.004851e+00	9.939512e-04	1.288974e-01	-9.617304e-01	9.894253e-01	2.775963e+04	1.110090e+04	3.000159e+02	-1.061396e-01	3.082872e-02	1.845991e-05	0.000000e+00	0.000000e+00	0.000000e+00	0.000000e+00	
1.003470e+00	1.110987e-03	1.287029e-01	-4.715993e-01	1.170185e+00	2.771319e+04	1.108280e+04	2.999795e+02	-2.790141e-01	2.823273e-02	1.845819e-05	0.000000e+00	0.000000e+00	0.000000e+00	0.000000e+00	
1.002915e+00	1.443786e-03	1.291356e-01	1.238999e+00	1.973518e+00	2.780862e+04	1.111504e+04	2.998439e+02	2.895550e-02	5.198202e-02	1.845177e-05	0.000000e+00	0.000000e+00	0.000000e+00	0.000000e+00	
1.004225e+00	1.599971e-03	1.291528e-01	-2.856323e-01	1.226101e+00	2.781054e+04	1.112176e+04	2.999855e+02	9.321006e-02	2.807369e-02	1.845848e-05	0.000000e+00	0.000000e+00	0.000000e+00	0.000000e+00	
1.002627e+00	1.749833e-03	1.291757e-01	4.547476e+00	4.450440e+00	2.786304e+04	1.108253e+04	2.988742e+02	-2.816107e-01	1.421275e-01	1.840584e-05	0.000000e+00	0.000000e+00	0.000000e+00	0.000000e+00	
1.001962e+00	1.359859e-03	1.299896e-01	5.349163e+00	6.080050e+00	2.807089e+04	1.112745e+04	2.982068e+02	1.475875e-01	1.799580e-01	1.837419e-05	0.000000e+00	0.000000e+00	0.000000e+00	0.000000e+00	
1.001117e+00	-4.442492e-04	1.318460e-01	-4.498162e+00	2.236574e+00	2.842599e+04	1.133212e+04	2.994156e+02	2.102950e+00	1.098386e-01	1.843150e-05	0.000000e+00	0.000000e+00	0.000000e+00	0.000000e+00	
1.000801e+00	-6.098115e-04	1.253365e-01	-4.460974e+00	4.674269e+00	2.704341e+04	1.075074e+04	2.988073e+02	-3.451581e+00	1.487652e-01	1.840267e-05	0.000000e+00	0.000000e+00	0.000000e+00	0.000000e+00	
1.001534e+00	1.064606e-03	1.295806e-01	6.264744e+00	7.713257e+00	2.802405e+04	1.105722e+04	2.972598e+02	-5.234713e-01	2.218669e-01	1.832921e-05	0.000000e+00	0.000000e+00	0.000000e+00	0.000000e+00	
1.001487e+00	6.121339e-04	1.291381e-01	4.116217e+00	5.081665e+00	2.786058e+04	1.107800e+04	2.988390e+02	-3.249116e-01	1.461269e-01	1.840418e-05	0.000000e+00	0.000000e+00	0.000000e+00	0.000000e+00	
1.001470e+00	1.599766e-04	1.278643e-01	1.968717e-01	1.706166e+00	2.754007e+04	1.101141e+04	3.000019e+02	-9.610905e-01	3.868415e-02	1.845925e-05	0.000000e+00	0.000000e+00	0.000000e+00	0.000000e+00	
1.001140e+00	-3.746021e-05	1.285990e-01	-4.835349e-01	2.335544e+00	2.770143e+04	1.107172e+04	2.999219e+02	-3.848679e-01	5.342090e-02	1.845547e-05	0.000000e+00	0.000000e+00	0.000000e+00	0.000000e+00	
1.000462e+00	-6.868059e-04	1.333969e-01	-1.033417e+01	5.672431e+00	2.887846e+04	1.134303e+04	2.962195e+02	2.207197e+00	2.561308e-01	1.827973e-05	0.000000e+00	0.000000e+00	0.000000e+00	0.000000e+00	
1.000000e+00	-1.000000e-03	1.144438e-01	-1.999238e+00	5.811437e+00	2.469430e+04	9.811716e+03	2.986641e+02	-1.242322e+01	1.550028e-01	1.839588e-05	0.000000e+00	0.000000e+00	0.000000e+00	0.000000e+00	
4.487486e-03	-5.228093e-02	1.212057e-01	7.269528e+00	-1.329912e+01	2.641497e+04	1.018694e+04	2.927866e+02	-8.838245e+00	3.645398e-01	1.811583e-05	0.000000e+00	0.000000e+00	0.000000e+00	0.000000e+00	
6.075662e-03	-5.497537e-02	1.212499e-01	7.985065e+00	-1.269824e+01	2.641826e+04	1.019616e+04	2.929446e+02	-8.750187e+00	3.605575e-01	1.812339e-05	0.000000e+00	0.000000e+00	0.000000e+00	0.000000e+00	
9.224216e-04	-4.952514e-02	1.216007e-01	5.936717e+00	-1.380987e+01	2.650001e+04	1.022837e+04	2.930222e+02	-8.442459e+00	3.602282e-01	1.812710e-05	0.000000e+00	0.000000e+00	0.000000e+00	0.000000e+00	
1.157133e-03	-5.208770e-02	1.219534e-01	6.527244e+00	-1.319165e+01	2.656468e+04	1.027061e+04	2.933815e+02	-8.038842e+00	3.514753e-01	1.814430e-05	0.000000e+00	0.000000e+00	0.000000e+00	0.000000e+00	
4.294775e-04	-4.791967e-02	1.215190e-01	5.329047e+00	-1.408848e+01	2.648406e+04	1.022021e+04	2.929854e+02	-8.520383e+00	3.612316e-01	1.812534e-05	0.000000e+00	0.000000e+00	0.000000e+00	0.000000e+00	
-1.017400e-03	-4.907179e-02	1.222242e-01	5.368453e+00	-1.363684e+01	2.662285e+04	1.029768e+04	2.935030e+02	-7.780223e+00	3.491310e-01	1.815011e-05	0.000000e+00	0.000000e+00	0.000000e+00	0.000000e+00	
1.078855e-03	-4.412468e-02	1.206155e-01	4.144490e+00	-1.487356e+01	2.630320e+04	1.012597e+04	2.924585e+02	-9.420742e+00	3.733954e-01	1.810011e-05	0.000000e+00	0.000000e+00	0.000000e+00	0.000000e+00	
-9.450080e-04	-4.560379e-02	1.218464e-01	4.390723e+00	-1.415785e+01	2.654729e+04	1.025826e+04	2.932861e+02	-8.156867e+00	3.543488e-01	1.813973e-05	0.000000e+00	0.000000e+00	0.000000e+00	0.000000e+00	
1.005066e+00	-4.553307e-03	1.289820e-01	1.238687e+00	1.454269e+00	2.778913e+04	1.110999e+04	3.000647e+02	-1.922896e-02	4.264969e-02	1.846222e-05	0.000000e+00	0.000000e+00	0.000000e+00	0.000000e+00	
1.001563e+00	-4.178643e-03	1.289446e-01	1.497355e+00	1.701481e+00	2.778470e+04	1.110591e+04	3.000416e+02	-5.825190e-02	5.061939e-02	1.846113e-05	0.000000e+00	0.000000e+00	0.000000e+00	0.000000e+00	
1.000312e+00	-2.221144e-03	1.281431e-01	2.403699e+00	3.564169e+00	2.762337e+04	1.102051e+04	2.995964e+02	-8.742252e-01	9.668323e-02	1.844006e-05	0.000000e+00	0.000000e+00	0.000000e+00	0.000000e+00	
1.000779e+00	-3.036700e-03	1.290213e-01	1.550550e+00	2.490760e+00	2.780375e+04	1.110816e+04	2.999239e+02	-3.678635e-02	6.549946e-02	1.845556e-05	0.000000e+00	0.000000e+00	0.000000e+00	0.000000e+00	
1.001029e+00	-3.661358e-03	1.288991e-01	1.456728e+00	1.903781e+00	2.777537e+04	1.110123e+04	3.000211e+02	-1.029345e-01	5.355805e-02	1.846016e-05	0.000000e+00	0.000000e+00	0.000000e+00	0.000000e+00	
9.996172e-01	-1.964303e-03	1.274198e-01	3.461125e+00	2.318377e+00	2.746500e+04	1.095876e+04	2.996090e+02	-1.464131e+00	9.421927e-02	1.844066e-05	0.000000e+00	0.000000e+00	0.000000e+00	0.000000e+00	
9.990485e-01	-1.418680e-03	1.279095e-01	3.668122e+00	1.834546e+00	2.756836e+04	1.100104e+04	2.996134e+02	-1.060184e+00	9.240370e-02	1.844087e-05	0.000000e+00	0.000000e+00	0.000000e+00	0.000000e+00	
1.002289e+00	-4.507450e-03	1.290031e-01	1.457172e+00	1.570238e+00	2.779676e+04	1.111159e+04	3.000588e+02	-4.003436e-03	4.781969e-02	1.846194e-05	0.000000e+00	0.000000e+00	0.000000e+00	0.000000e+00	
1.002970e+00	-4.908479e-03	1.289507e-01	1.455663e+00	1.535982e+00	2.778540e+04	1.110722e+04	3.000625e+02	-4.577284e-02	4.725774e-02	1.846212e-05	0.000000e+00	0.000000e+00	0.000000e+00	0.000000e+00	
1.001758e+00	-5.093791e-03	1.288575e-01	1.691302e+00	1.524213e+00	2.776724e+04	1.109885e+04	3.000535e+02	-1.257100e-01	5.088189e-02	1.846170e-05	0.000000e+00	0.000000e+00	0.000000e+00	0.000000e+00	
1.004746e+00	-5.635400e-03	1.289863e-01	1.528676e+00	1.408354e+00	2.779323e+04	1.111059e+04	3.000711e+02	-1.349891e-02	4.640376e-02	1.846252e-05	0.000000e+00	0.000000e+00	0.000000e+00	0.000000e+00	
1.003705e+00	-5.430800e-03	1.289716e-01	1.585837e+00	1.461382e+00	2.779124e+04	1.110929e+04	3.000699e+02	-2.599812e-02	4.815001e-02	1.846247e-05	0.000000e+00	0.000000e+00	0.000000e+00	0.000000e+00	
1.006057e+00	-2.726278e-03	1.289929e-01	8.328396e-01	1.382420e+00	2.778636e+04	1.111050e+04	3.000533e+02	-1.435702e-02	3.603012e-02	1.846169e-05	0.000000e+00	0.000000e+00	0.000000e+00	0.000000e+00	
1.005467e+00	3.486461e-04	1.290544e-01	-5.508935e-01	1.187096e+00	2.779657e+04	1.111597e+04	3.000577e+02	3.787976e-02	2.920209e-02	1.846189e-05	0.000000e+00	0.000000e+00	0.000000e+00	0.000000e+00	
1.005747e+00	-1.185703e-03	1.289772e-01	4.289491e-01	1.356022e+00	2.778191e+04	1.110963e+04	3.000660e+02	-2.273437e-02	3.175451e-02	1.846229e-05	0.000000e+00	0.000000e+00	0.000000e+00	0.000000e+00	
1.006170e+00	-3.095133e-04	1.289980e-01	2.562946e-02	1.286092e+00	2.778574e+04	1.111173e+04	3.000746e+02	-2.624509e-03	2.871519e-02	1.846269e-05	0.000000e+00	0.000000e+00	0.000000e+00	0.000000e+00	
1.006346e+00	-1.770120e-03	1.290154e-01	6.594150e-01	1.334640e+00	2.779021e+04	1.111265e+04	3.000588e+02	6.128089e-03	3.322769e-02	1.846195e-05	0.000000e+00	0.000000e+00	0.000000e+00	0.000000e+00	
1.006764e+00	-3.592193e-03	1.289822e-01	9.854915e-01	1.346777e+00	2.778490e+04	1.110964e+04	3.000548e+02	-2.261935e-02	3.725924e-02	1.846176e-05	0.000000e+00	0.000000e+00	0.000000e+00	0.000000e+00	
1.006283e+00	-4.665904e-03	1.289950e-01	1.202678e+00	1.372512e+00	2.779052e+04	1.111105e+04	3.000629e+02	-9.191795e-03	4.073885e-02	1.846214e-05	0.000000e+00	0.000000e+00	0.000000e+00	0.000000e+00	
1.005803e+00	1.096396e-03	1.289869e-01	-8.407302e-01	9.873993e-01	2.777893e+04	1.110896e+04	3.000256e+02	-2.907254e-02	2.895420e-02	1.846037e-05	0.000000e+00	0.000000e+00	0.000000e+00	0.000000e+00	
1.005204e+00	1.852426e-03	1.288889e-01	-2.322349e-01	1.041786e+00	2.775371e+04	1.109972e+04	3.000039e+02	-1.174144e-01	2.384966e-02	1.845935e-05	0.000000e+00	0.000000e+00	0.000000e+00	0.000000e+00	
1.003496e+00	2.107399e-03	1.287735e-01	2.865323e+00	2.785852e+00	2.774680e+04	1.107392e+04	2.995747e+02	-3.639199e-01	8.944144e-02	1.843903e-05	0.000000e+00	0.000000e+00	0.000000e+00	0.000000e+00	
1.004479e+00	2.519077e-03	1.290138e-01	2.416932e+00	2.256889e+00	2.779302e+04	1.110026e+04	2.997279e+02	-1.122640e-01	7.385211e-02	1.844628e-05	0.000000e+00	0.000000e+00	0.000000e+00	0.000000e+00	
1.002067e+00	2.041100e-03	1.306540e-01	7.502360e+00	7.999043e+00	2.828629e+04	1.113041e+04	2.967693e+02	1.758359e-01	2.430513e-01	1.830589e-05	0.000000e+00	0.000000e+00	0.000000e+00	0.000000e+00	
1.002822e+00	2.591043e-03	1.310156e-01	7.118230e+00	6.826670e+00	2.833804e+04	1.118673e+04	2.974474e+02	7.138762e-01	2.177300e-01	1.833813e-05	0.000000e+00	0.000000e+00	0.000000e+00	0.000000e+00	
1.001634e+00	1.585477e-03	1.319963e-01	7.563100e+00	9.253154e+00	2.860225e+04	1.122450e+04	2.962343e+02	1.074770e+00	2.624026e-01	1.828043e-05	0.000000e+00	0.000000e+00	0.000000e+00	0.000000e+00	
1.001171e+00	1.348771e-03	1.313438e-01	7.842061e+00	1.033422e+01	2.849298e+04	1.114093e+04	2.954895e+02	2.763120e-01	2.866190e-01	1.824495e-05	0.000000e+00	0.000000e+00	0.000000e+00	0.000000e+00	
1.000841e+00	-1.914314e-04	1.246712e-01	-1.447947e-01	2.511971e+00	2.685592e+04	1.073221e+04	2.998840e+02	-3.628653e+00	5.813574e-02	1.845367e-05	0.000000e+00	0.000000e+00	0.000000e+00	0.000000e+00	
1.000590e+00	-3.539976e-04	1.263821e-01	-2.675355e+00	4.007583e+00	2.723694e+04	1.085803e+04	2.992925e+02	-2.426524e+00	1.099341e-01	1.842566e-05	0.000000e+00	0.000000e+00	0.000000e+00	0.000000e+00	
1.001102e+00	8.690852e-04	1.326536e-01	6.931608e+00	1.010501e+01	2.874571e+04	1.127189e+04	2.960112e+02	1.527585e+00	2.678261e-01	1.826981e-05	0.000000e+00	0.000000e+00	0.000000e+00	0.000000e+00	
1.001124e+00	3.401444e-04	1.326876e-01	4.740665e+00	7.284279e+00	2.866071e+04	1.135043e+04	2.979973e+02	2.277945e+00	1.892726e-01	1.836424e-05	0.000000e+00	0.000000e+00	0.000000e+00	0.000000e+00	
1.000832e+00	1.566142e-04	1.302656e-01	7.909797e+00	9.034002e+00	2.821441e+04	1.106440e+04	2.958888e+02	-4.548213e-01	2.673048e-01	1.826398e-05	0.000000e+00	0.000000e+00	0.000000e+00	0.000000e+00	
1.000362e+00	-3.337483e-04	1.242636e-01	4.817300e+00	1.654739e+01	2.709080e+04	1.035827e+04	2.903845e+02	-7.201370e+00	4.059898e-01	1.800059e-05	0.000000e+00	0.000000e+00	0.000000e+00	0.000000e+00	
1.000000e+00	0.000000e+00	2.432958e-01	1.945831e+01	1.036683e+02	5.890179e+04	1.441486e+04	2.063983e+02	3.155604e+01	1.505317e+00	1.364626e-05	0.000000e+00	0.000000e+00	0.000000e+00	0.000000e+00	
2.303144e-03	-5.525553e-02	1.222707e-01	7.202284e+00	-1.259974e+01	2.662513e+04	1.030553e+04	2.936149e+02	-7.705270e+00	3.455382e-01	1.815546e-05	0.000000e+00	0.000000e+00	0.000000e+00	0.000000e+00	
7.917903e-03	-5.772272e-02	1.215517e-01	8.562192e+00	-1.205892e+01	2.647467e+04	1.022997e+04	2.931864e+02	-8.427109e+00	3.544631e-01	1.813496e-05	0.000000e+00	0.000000e+00	0.000000e+00	0.000000e+00	
1.006240e-02	-6.057553e-02	1.218293e-01	9.045262e+00	-1.142421e+01	2.652584e+04	1.026177e+04	2.934275e+02	-8.123331e+00	3.483004e-01	1.814650e-05	0.000000e+00	0.000000e+00	0.000000e+00	0.000000e+00	
1.251909e-02	-6.352182e-02	1.220974e-01	9.454245e+00	-1.080440e+01	2.657529e+04	1.029249e+04	2.936595e+02	-7.829842e+00	3.422791e-01	1.815759e-05	0.000000e+00	0.000000e+00	0.000000e+00	0.000000e+00	
1.529738e-02	-6.654752e-02	1.223529e-01	9.803097e+00	-1.018392e+01	2.662198e+04	1.032218e+04	2.938918e+02	-7.546190e+00	3.361670e-01	1.816870e-05	0.000000e+00	0.000000e+00	0.000000e+00	0.000000e+00	
1.843145e-02	-6.965269e-02	1.226145e-01	1.008474e+01	-9.549221e+00	2.666937e+04	1.035312e+04	2.941438e+02	-7.250530e+00	3.294457e-01	1.818074e-05	0.000000e+00	0.000000e+00	0.000000e+00	0.000000e+00	
2.196161e-02	-7.284655e-02	1.229060e-01	1.028100e+01	-8.928031e+00	2.672258e+04	1.038732e+04	2.944155e+02	-6.923766e+00	3.220792e-01	1.819372e-05	0.000000e+00	0.000000e+00	0.000000e+00	0.000000e+00	
2.590787e-02	-7.613512e-02	1.232065e-01	1.041207e+01	-8.362143e+00	2.677827e+04	1.042181e+04	2.946727e+02	-6.594232e+00	3.149690e-01	1.820599e-05	0.000000e+00	0.000000e+00	0.000000e+00	0.000000e+00	
3.032086e-02	-7.955245e-02	1.234676e-01	1.051164e+01	-7.847284e+00	2.682653e+04	1.045188e+04	2.948980e+02	-6.306999e+00	3.086176e-01	1.821674e-05	0.000000e+00	0.000000e+00	0.000000e+00	0.000000e+00	
3.519676e-02	-8.306270e-02	1.236897e-01	1.059602e+01	-7.352737e+00	2.686715e+04	1.047790e+04	2.951012e+02	-6.058388e+00	3.027809e-01	1.822644e-05	0.000000e+00	0.000000e+00	0.000000e+00	0.000000e+00	
4.055945e-02	-8.665100e-02	1.239038e-01	1.065578e+01	-6.873501e+00	2.690630e+04	1.050298e+04	2.952966e+02	-5.818762e+00	2.970762e-01	1.823575e-05	0.000000e+00	0.000000e+00	0.000000e+00	0.000000e+00	
4.640551e-02	-9.028757e-02	1.241106e-01	1.069066e+01	-6.414410e+00	2.694420e+04	1.052720e+04	2.954842e+02	-5.587353e+00	2.915072e-01	1.824470e-05	0.000000e+00	0.000000e+00	0.000000e+00	0.000000e+00	
5.272092e-02	-9.394296e-02	1.243081e-01	1.070106e+01	-5.976878e+00	2.698032e+04	1.055041e+04	2.956653e+02	-5.365556e+00	2.860475e-01	1.825333e-05	0.000000e+00	0.000000e+00	0.000000e+00	0.000000e+00	