TITLE = "Visualization of the volumetric solution"
VARIABLES = "x""y""Conservative_1""Conservative_2""Conservative_3""Conservative_4""Surface_Sensitivity""Solution_Sensor"
ZONE NODES= 5233, ELEMENTS= 10216, DATAPACKING=POINT, ZONETYPE=FEQUADRILATERAL
1.002199e+00	-1.282514e-03	1.872420e+01	-6.769607e+00	-1.889289e+01	1.901397e-03	0.000000e+00	0.000000e+00	
1.002611e+00	-8.932374e-04	3.465546e+01	-5.050322e+00	-1.858468e+01	1.658267e-03	0.000000e+00	0.000000e+00	
1.002291e+00	-1.592870e-03	2.661662e+01	-8.215633e+00	-1.845359e+01	1.903449e-03	0.000000e+00	0.000000e+00	
1.001805e+00	-1.525938e-03	-3.165895e+00	-8.560430e+00	-1.873347e+01	2.081692e-03	0.000000e+00	0.000000e+00	
1.002470e+00	-1.983986e-03	4.439008e+01	-9.012646e+00	-1.771261e+01	1.820332e-03	0.000000e+00	0.000000e+00	
1.002686e+00	-2.478811e-03	6.253969e+01	-9.793307e+00	-1.671867e+01	1.690947e-03	0.000000e+00	0.000000e+00	
1.002759e+00	-1.438835e-03	4.840588e+01	-7.032041e+00	-1.817983e+01	1.715588e-03	0.000000e+00	0.000000e+00	
1.003175e+00	-1.022347e-03	5.273062e+01	-5.486162e+00	-1.777567e+01	1.503989e-03	0.000000e+00	0.000000e+00	
1.003071e+00	-1.981655e-03	6.517537e+01	-8.227922e+00	-1.707272e+01	1.605768e-03	0.000000e+00	0.000000e+00	
1.003124e+00	-6.257720e-04	4.821189e+01	-4.071278e+00	-1.780952e+01	1.660006e-03	0.000000e+00	0.000000e+00	
1.002158e+00	-9.405711e-04	9.106343e+00	-5.178343e+00	-1.916878e+01	2.017048e-03	0.000000e+00	0.000000e+00	
1.001764e+00	-1.147577e-03	-1.445441e+01	-6.683427e+00	-1.928635e+01	2.051102e-03	0.000000e+00	0.000000e+00	
1.002635e+00	-3.367396e-04	3.378679e+01	-2.806454e+00	-1.825944e+01	1.534704e-03	0.000000e+00	0.000000e+00	
1.002141e+00	-6.017335e-04	1.341000e+01	-3.494634e+00	-1.907094e+01	1.945600e-03	0.000000e+00	0.000000e+00	
1.001397e+00	-1.354642e-03	-5.266124e+01	-8.354742e+00	-1.851386e+01	2.530909e-03	0.000000e+00	0.000000e+00	
1.001943e+00	-1.943705e-03	1.489826e+01	-9.895145e+00	-1.800899e+01	1.982577e-03	0.000000e+00	0.000000e+00	
1.001499e+00	-1.771922e-03	-3.005101e+01	-1.039181e+01	-1.775653e+01	2.337361e-03	0.000000e+00	0.000000e+00	
1.002117e+00	-2.378238e-03	3.583527e+01	-1.077001e+01	-1.703938e+01	1.905435e-03	0.000000e+00	0.000000e+00	
1.002299e+00	-2.866624e-03	5.782131e+01	-1.123013e+01	-1.601876e+01	1.777147e-03	0.000000e+00	0.000000e+00	
1.002918e+00	-2.997965e-03	8.008688e+01	-1.022663e+01	-1.565284e+01	1.575217e-03	0.000000e+00	0.000000e+00	
1.003332e+00	-2.537596e-03	8.136526e+01	-8.947551e+00	-1.613053e+01	1.490300e-03	0.000000e+00	0.000000e+00	
1.003367e+00	-1.521498e-03	6.655367e+01	-6.632685e+00	-1.716766e+01	1.568138e-03	0.000000e+00	0.000000e+00	
1.003708e+00	-7.426047e-04	6.076463e+01	-4.748007e+00	-1.684458e+01	1.388910e-03	0.000000e+00	0.000000e+00	
1.003727e+00	-2.033994e-03	8.040000e+01	-7.589369e+00	-1.624549e+01	1.405380e-03	0.000000e+00	0.000000e+00	
1.003176e+00	-1.031835e-04	4.974540e+01	-2.738169e+00	-1.725065e+01	1.475923e-03	0.000000e+00	0.000000e+00	
1.002791e+00	2.408249e-04	4.144520e+01	-1.090285e+00	-1.717752e+01	1.527804e-03	0.000000e+00	0.000000e+00	
1.001746e+00	-8.017345e-04	-1.809268e+01	-4.593472e+00	-1.948495e+01	1.901707e-03	0.000000e+00	0.000000e+00	
1.001384e+00	-9.938412e-04	-6.180317e+01	-5.812438e+00	-1.906634e+01	2.581986e-03	0.000000e+00	0.000000e+00	
1.002334e+00	5.875492e-04	4.445605e+01	8.121203e-01	-1.682660e+01	1.668905e-03	0.000000e+00	0.000000e+00	
1.002258e+00	9.941299e-05	3.206299e+01	-5.812346e-01	-1.797898e+01	1.783194e-03	0.000000e+00	0.000000e+00	
1.002173e+00	-2.935302e-04	1.919547e+01	-1.725429e+00	-1.875692e+01	1.970798e-03	0.000000e+00	0.000000e+00	
1.001742e+00	-4.380368e-04	-1.069605e+01	-2.365253e+00	-1.912932e+01	1.794431e-03	0.000000e+00	0.000000e+00	
1.001042e+00	-1.159964e-03	-1.281996e+02	-7.993643e+00	-1.767019e+01	2.652118e-03	0.000000e+00	0.000000e+00	
1.003593e+00	-3.180477e-03	9.199038e+01	-9.384319e+00	-1.509077e+01	1.475513e-03	0.000000e+00	0.000000e+00	
1.001099e+00	-1.589829e-03	-9.026077e+01	-1.052574e+01	-1.702099e+01	2.594608e-03	0.000000e+00	0.000000e+00	
1.000730e+00	-1.400067e-03	-1.756142e+02	-1.012177e+01	-1.540470e+01	3.095145e-03	0.000000e+00	0.000000e+00	
1.001596e+00	-2.238221e-03	-4.575795e+00	-1.162885e+01	-1.677303e+01	2.242855e-03	0.000000e+00	0.000000e+00	
1.001151e+00	-2.062823e-03	-5.804815e+01	-1.233659e+01	-1.592490e+01	2.443726e-03	0.000000e+00	0.000000e+00	
1.001735e+00	-2.755596e-03	2.441685e+01	-1.232359e+01	-1.583522e+01	2.009192e-03	0.000000e+00	0.000000e+00	
1.001942e+00	-3.256699e-03	5.091407e+01	-1.252812e+01	-1.483955e+01	1.822125e-03	0.000000e+00	0.000000e+00	
1.002533e+00	-3.432766e-03	7.955161e+01	-1.140259e+01	-1.494403e+01	1.667073e-03	0.000000e+00	0.000000e+00	
1.003403e+00	-3.604866e-03	9.678074e+01	-1.033195e+01	-1.456514e+01	1.354425e-03	0.000000e+00	0.000000e+00	
1.004050e+00	-2.644882e-03	9.339981e+01	-8.359550e+00	-1.522295e+01	1.366850e-03	0.000000e+00	0.000000e+00	
1.003832e+00	8.028770e-08	5.790926e+01	-3.069165e+00	-1.626049e+01	1.409208e-03	0.000000e+00	0.000000e+00	
1.004048e+00	-1.419932e-03	7.525279e+01	-6.092835e+00	-1.614468e+01	1.297235e-03	0.000000e+00	0.000000e+00	
1.004427e+00	-6.254646e-04	6.824291e+01	-4.580084e+00	-1.573792e+01	1.289465e-03	0.000000e+00	0.000000e+00	
1.004480e+00	-2.024707e-03	8.869918e+01	-7.037655e+00	-1.531066e+01	1.289486e-03	0.000000e+00	0.000000e+00	
1.003363e+00	4.677824e-04	5.064482e+01	-1.360680e+00	-1.633949e+01	1.455712e-03	0.000000e+00	0.000000e+00	
1.002875e+00	8.072455e-04	4.896143e+01	2.501978e-01	-1.617126e+01	1.512565e-03	0.000000e+00	0.000000e+00	
1.004040e+00	6.882339e-04	5.489389e+01	-1.661398e+00	-1.542480e+01	1.270979e-03	0.000000e+00	0.000000e+00	
1.002398e+00	1.095216e-03	4.752482e+01	1.885767e+00	-1.550903e+01	1.455233e-03	0.000000e+00	0.000000e+00	
1.001384e+00	-6.429956e-04	-4.548674e+01	-2.878216e+00	-1.923095e+01	2.641715e-03	0.000000e+00	0.000000e+00	
1.001052e+00	-8.433661e-04	-1.418605e+02	-5.312919e+00	-1.800989e+01	2.344715e-03	0.000000e+00	0.000000e+00	
1.001917e+00	8.276535e-04	4.481674e+01	2.603591e+00	-1.584451e+01	1.482972e-03	0.000000e+00	0.000000e+00	
1.001875e+00	3.722851e-04	3.743220e+01	1.430100e+00	-1.719691e+01	1.672967e-03	0.000000e+00	0.000000e+00	
1.001806e+00	-3.903301e-05	1.564021e+01	-2.285228e-01	-1.845189e+01	1.767069e-03	0.000000e+00	0.000000e+00	
1.001447e+00	-2.537531e-04	-3.595440e+00	-2.128910e-02	-1.867856e+01	2.433187e-03	0.000000e+00	0.000000e+00	
1.000704e+00	-9.934300e-04	-2.550691e+02	-6.008569e+00	-1.551731e+01	3.857781e-03	0.000000e+00	0.000000e+00	
1.000351e+00	-1.274307e-03	-2.804688e+02	-9.251359e+00	-1.307690e+01	3.086320e-03	0.000000e+00	0.000000e+00	
3.124498e-03	-4.958983e-02	6.828175e+02	-4.617077e+00	1.111615e+01	2.640815e-03	-7.523271e+02	0.000000e+00	
2.537646e-03	-4.826432e-02	7.066456e+02	-4.165285e+00	1.147867e+01	2.779154e-03	-1.081806e+03	0.000000e+00	
2.003081e-03	-4.692571e-02	6.934874e+02	-3.493841e+00	1.158059e+01	2.746306e-03	1.213670e+02	0.000000e+00	
1.004448e+00	-3.640128e-03	1.055290e+02	-9.043016e+00	-1.405867e+01	1.215587e-03	0.000000e+00	0.000000e+00	
1.000738e+00	-1.890834e-03	-1.236223e+02	-1.287327e+01	-1.425985e+01	2.884390e-03	0.000000e+00	0.000000e+00	
1.000393e+00	-1.641247e-03	-1.630785e+02	-1.281225e+01	-1.290903e+01	3.552053e-03	0.000000e+00	0.000000e+00	
1.001206e+00	-2.530846e-03	-2.166307e+01	-1.329915e+01	-1.498560e+01	2.154712e-03	0.000000e+00	0.000000e+00	
1.000761e+00	-2.350441e-03	-8.069576e+01	-1.371537e+01	-1.353889e+01	2.621069e-03	0.000000e+00	0.000000e+00	
1.001356e+00	-3.177248e-03	1.615952e+01	-1.362212e+01	-1.412441e+01	2.170293e-03	0.000000e+00	0.000000e+00	
1.001629e+00	-3.712269e-03	4.665845e+01	-1.340787e+01	-1.366280e+01	1.796280e-03	0.000000e+00	0.000000e+00	
1.000049e+00	-1.488339e-03	-2.165919e+02	-1.342070e+01	-8.606717e+00	4.244332e-03	0.000000e+00	0.000000e+00	
9.997621e-01	-1.104662e-03	-3.132680e+02	-1.146613e+01	-3.553682e+00	6.002773e-03	-1.805780e+05	0.000000e+00	
1.002256e+00	-3.801971e-03	7.497136e+01	-1.239911e+01	-1.406990e+01	1.639454e-03	0.000000e+00	0.000000e+00	
1.002917e+00	-4.125187e-03	9.717555e+01	-1.142361e+01	-1.387743e+01	1.502257e-03	0.000000e+00	0.000000e+00	
1.003948e+00	-4.396732e-03	1.121973e+02	-1.019293e+01	-1.332341e+01	1.324040e-03	0.000000e+00	0.000000e+00	
1.004993e+00	-2.855765e-03	9.941041e+01	-7.776254e+00	-1.423804e+01	1.200009e-03	0.000000e+00	0.000000e+00	
1.004597e+00	1.571062e-04	6.242041e+01	-3.170636e+00	-1.525710e+01	1.224053e-03	0.000000e+00	0.000000e+00	
1.004846e+00	-1.314333e-03	8.038898e+01	-5.746091e+00	-1.515096e+01	1.230472e-03	0.000000e+00	0.000000e+00	
1.005245e+00	-4.818387e-04	7.127085e+01	-4.459177e+00	-1.474568e+01	1.149881e-03	0.000000e+00	0.000000e+00	
1.005387e+00	-2.030420e-03	9.165041e+01	-6.584990e+00	-1.435530e+01	1.145907e-03	0.000000e+00	0.000000e+00	
1.005607e+00	-3.661400e-03	1.096961e+02	-8.109975e+00	-1.314315e+01	1.090334e-03	0.000000e+00	0.000000e+00	
1.004851e+00	9.939512e-04	5.821029e+01	-1.897357e+00	-1.446489e+01	1.228057e-03	0.000000e+00	0.000000e+00	
1.003470e+00	1.110987e-03	5.172432e+01	-7.153988e-02	-1.526390e+01	1.413184e-03	0.000000e+00	0.000000e+00	
1.002915e+00	1.443786e-03	4.825064e+01	1.190488e+00	-1.498001e+01	1.282419e-03	0.000000e+00	0.000000e+00	
1.004225e+00	1.599971e-03	5.268661e+01	-4.000283e-01	-1.428163e+01	1.237482e-03	0.000000e+00	0.000000e+00	
1.002627e+00	1.749833e-03	3.675345e+01	2.535907e+00	-1.410377e+01	1.252576e-03	0.000000e+00	0.000000e+00	
1.001962e+00	1.359859e-03	2.904679e+01	3.332427e+00	-1.434158e+01	1.058990e-03	0.000000e+00	0.000000e+00	
1.001117e+00	-4.442492e-04	-8.998134e+01	-1.901447e+00	-1.836501e+01	1.787385e-03	0.000000e+00	0.000000e+00	
1.000801e+00	-6.098115e-04	-1.344204e+02	-2.136719e+00	-1.637257e+01	4.050521e-03	0.000000e+00	0.000000e+00	
1.001534e+00	1.064606e-03	1.665594e+01	4.248407e+00	-1.442826e+01	1.112953e-03	0.000000e+00	0.000000e+00	
1.001487e+00	6.121339e-04	3.607318e+01	3.520054e+00	-1.594071e+01	1.628784e-03	0.000000e+00	0.000000e+00	
1.001470e+00	1.599766e-04	3.172233e+01	2.057330e+00	-1.751885e+01	2.007425e-03	0.000000e+00	0.000000e+00	
1.001140e+00	-3.746021e-05	4.328280e+00	1.625203e+00	-1.743084e+01	1.737316e-03	0.000000e+00	0.000000e+00	
1.000462e+00	-6.868059e-04	-5.252474e+02	-5.626385e+00	-1.197980e+01	1.443334e-03	0.000000e+00	0.000000e+00	
1.000000e+00	-1.000000e-03	-4.129683e+02	-4.613290e+00	-1.100955e+01	4.643279e-03	3.290425e+04	0.000000e+00	
4.487486e-03	-5.228093e-02	6.626585e+02	-5.090465e+00	1.074979e+01	2.606691e-03	-6.679624e+00	0.000000e+00	
6.075662e-03	-5.497537e-02	6.548249e+02	-5.689520e+00	1.039190e+01	2.546160e-03	-2.475133e+02	0.000000e+00	
9.224216e-04	-4.952514e-02	6.324045e+02	-4.086053e+00	1.077912e+01	2.427860e-03	0.000000e+00	0.000000e+00	
1.157133e-03	-5.208770e-02	6.005384e+02	-4.464753e+00	1.032469e+01	2.301859e-03	0.000000e+00	0.000000e+00	
4.294775e-04	-4.791967e-02	6.393441e+02	-3.616907e+00	1.099878e+01	2.462308e-03	0.000000e+00	0.000000e+00	
-1.017400e-03	-4.907179e-02	5.900422e+02	-3.673110e+00	1.048720e+01	2.242650e-03	0.000000e+00	0.000000e+00	
1.078855e-03	-4.412468e-02	6.823446e+02	-2.730405e+00	1.170078e+01	2.660595e-03	-6.442565e+01	0.000000e+00	
-9.450080e-04	-4.560379e-02	6.105655e+02	-2.857850e+00	1.095236e+01	2.363053e-03	0.000000e+00	0.000000e+00	
1.005066e+00	-4.553307e-03	1.194192e+02	-9.129725e+00	-1.276043e+01	1.146835e-03	0.000000e+00	0.000000e+00	
1.001563e+00	-4.178643e-03	6.360956e+01	-1.343182e+01	-1.279177e+01	1.790299e-03	0.000000e+00	0.000000e+00	
1.000312e+00	-2.221144e-03	-1.450172e+02	-1.481526e+01	-9.931886e+00	2.388212e-03	0.000000e+00	0.000000e+00	
1.000779e+00	-3.036700e-03	-4.004667e+01	-1.471676e+01	-1.208259e+01	2.333789e-03	0.000000e+00	0.000000e+00	
1.001029e+00	-3.661358e-03	2.230988e+01	-1.441045e+01	-1.228593e+01	1.955865e-03	0.000000e+00	0.000000e+00	
9.996172e-01	-1.964303e-03	-2.335867e+02	-1.350068e+01	-4.747975e+00	3.219445e-03	0.000000e+00	0.000000e+00	
9.990485e-01	-1.418680e-03	-2.630825e+02	-1.155598e+01	-4.001014e+00	3.085294e-03	1.552176e+04	0.000000e+00	
1.002289e+00	-4.507450e-03	8.886539e+01	-1.240981e+01	-1.294975e+01	1.665196e-03	0.000000e+00	0.000000e+00	
1.002970e+00	-4.908479e-03	1.058983e+02	-1.142033e+01	-1.288782e+01	1.318847e-03	0.000000e+00	0.000000e+00	
1.001758e+00	-5.093791e-03	7.801167e+01	-1.311376e+01	-1.190522e+01	1.522220e-03	0.000000e+00	0.000000e+00	
1.004746e+00	-5.635400e-03	1.234571e+02	-9.768659e+00	-1.199013e+01	1.190400e-03	0.000000e+00	0.000000e+00	
1.003705e+00	-5.430800e-03	1.180957e+02	-1.077696e+01	-1.226547e+01	1.238721e-03	0.000000e+00	0.000000e+00	
1.006057e+00	-2.726278e-03	1.002573e+02	-7.064990e+00	-1.334922e+01	1.060509e-03	0.000000e+00	0.000000e+00	
1.005467e+00	3.486461e-04	6.534522e+01	-3.300307e+00	-1.428801e+01	1.164653e-03	0.000000e+00	0.000000e+00	
1.005747e+00	-1.185703e-03	8.099938e+01	-5.373260e+00	-1.419187e+01	1.052512e-03	0.000000e+00	0.000000e+00	
1.006170e+00	-3.095133e-04	7.200539e+01	-4.347045e+00	-1.388852e+01	1.095607e-03	0.000000e+00	0.000000e+00	
1.006346e+00	-1.770120e-03	9.003012e+01	-5.947458e+00	-1.342897e+01	1.047739e-03	0.000000e+00	0.000000e+00	
1.006764e+00	-3.592193e-03	1.078394e+02	-7.331137e+00	-1.229794e+01	9.972182e-04	0.000000e+00	0.000000e+00	
1.006283e+00	-4.665904e-03	1.182627e+02	-8.197621e+00	-1.195678e+01	9.969873e-04	0.000000e+00	0.000000e+00	
1.005803e+00	1.096396e-03	6.095037e+01	-2.412444e+00	-1.360192e+01	1.085685e-03	0.000000e+00	0.000000e+00	
1.005204e+00	1.852426e-03	5.506281e+01	-1.013227e+00	-1.346586e+01	1.186398e-03	0.000000e+00	0.000000e+00	
1.003496e+00	2.107399e-03	4.540057e+01	1.303055e+00	-1.384617e+01	1.232215e-03	0.000000e+00	0.000000e+00	
1.004479e+00	2.519077e-03	4.765649e+01	5.313243e-01	-1.308903e+01	1.151273e-03	0.000000e+00	0.000000e+00	
1.002067e+00	2.041100e-03	3.981724e+00	3.835820e+00	-1.302090e+01	7.054801e-04	0.000000e+00	0.000000e+00	
1.002822e+00	2.591043e-03	1.656572e+01	3.068290e+00	-1.260213e+01	7.277980e-04	0.000000e+00	0.000000e+00	
1.001634e+00	1.585477e-03	-5.780143e+00	4.642538e+00	-1.323637e+01	7.209334e-04	0.000000e+00	0.000000e+00	
1.001171e+00	1.348771e-03	-2.483894e+01	5.329051e+00	-1.313943e+01	4.654334e-04	0.000000e+00	0.000000e+00	
1.000841e+00	-1.914314e-04	2.787673e+00	2.346119e+00	-1.728549e+01	3.245784e-03	0.000000e+00	0.000000e+00	
1.000590e+00	-3.539976e-04	-1.181006e+02	-2.977570e+00	-1.492170e+01	1.303840e-03	0.000000e+00	0.000000e+00	
1.001102e+00	8.690852e-04	-5.296771e+00	5.126120e+00	-1.411751e+01	6.297694e-04	0.000000e+00	0.000000e+00	
1.001124e+00	3.401444e-04	4.289707e+01	3.903089e+00	-1.585583e+01	1.395777e-03	0.000000e+00	0.000000e+00	
1.000832e+00	1.566142e-04	-1.085288e+01	4.817112e+00	-1.592586e+01	2.272412e-03	0.000000e+00	0.000000e+00	
1.000362e+00	-3.337483e-04	1.324197e+02	2.620671e+00	-1.429603e+01	8.929739e-03	0.000000e+00	0.000000e+00	
1.000000e+00	0.000000e+00	-1.871338e+03	-8.758823e+00	5.009080e+00	-4.457503e-03	-2.046001e+07	0.000000e+00	
2.303144e-03	-5.525553e-02	5.856865e+02	-5.006021e+00	9.915500e+00	2.235765e-03	0.000000e+00	0.000000e+00	
7.917903e-03	-5.772272e-02	6.388498e+02	-6.147190e+00	9.982000e+00	2.483392e-03	-8.968269e+01	0.000000e+00	
1.006240e-02	-6.057553e-02	6.215205e+02	-6.547643e+00	9.553580e+00	2.411722e-03	-1.179532e+02	0.000000e+00	
1.251909e-02	-6.352182e-02	6.037454e+02	-6.889556e+00	9.131724e+00	2.346837e-03	-9.333309e+01	0.000000e+00	
1.529738e-02	-6.654752e-02	5.869600e+02	-7.203237e+00	8.710061e+00	2.280134e-03	-1.002199e+02	0.000000e+00	
1.843145e-02	-6.965269e-02	5.681359e+02	-7.466987e+00	8.275245e+00	2.204480e-03	-9.690014e+01	0.000000e+00	
2.196161e-02	-7.284655e-02	5.472925e+02	-7.665690e+00	7.845681e+00	2.121467e-03	-8.373544e+01	0.000000e+00	
2.590787e-02	-7.613512e-02	5.267698e+02	-7.810033e+00	7.449749e+00	2.043500e-03	-6.797215e+01	0.000000e+00	
3.032086e-02	-7.955245e-02	5.088399e+02	-7.936158e+00	7.087127e+00	1.976918e-03	-6.073599e+01	0.000000e+00	
3.519676e-02	-8.306270e-02	4.930457e+02	-8.058075e+00	6.739764e+00	1.915466e-03	-5.503058e+01	0.000000e+00	
4.055945e-02	-8.665100e-02	4.783068e+02	-8.167805e+00	6.403036e+00	1.857419e-03	-4.498262e+01	0.000000e+00	
4.640551e-02	-9.028757e-02	4.642087e+02	-8.260531e+00	6.079030e+00	1.802321e-03	-3.699978e+01	0.000000e+00	
5.272092e-02	-9.394296e-02	4.507720e+02	-8.338432e+00	5.768591e+00	1.749532e-03	-3.161425e+01	0.000000e+00	
5.950360e-02	-9.759851e-02	4.378260e+02	-8.400868e+00	5.472351e+00	1.698386e-03	-2.886456e+01	0.000000e+00	
4.028374e-03	-5.836782e-02	5.755755e+02	-5.495743e+00	9.555492e+00	2.195708e-03	0.000000e+00	0.000000e+00	
-1.557811e-03	-5.103940e-02	5.525287e+02	-3.909944e+00	1.001696e+01	2.092055e-03	0.000000e+00	0.000000e+00	
-1.635915e-03	-5.475235e-02	5.179865e+02	-4.326344e+00	9.452623e+00	1.987026e-03	0.000000e+00	0.000000e+00	
-5.728511e-03	-5.068393e-02	4.578607e+02	-3.294211e+00	9.133804e+00	1.787464e-03	0.000000e+00	0.000000e+00	
-3.443003e-03	-4.949962e-02	5.170558e+02	-3.368977e+00	9.797443e+00	1.980927e-03	0.000000e+00	0.000000e+00	
-2.458571e-03	-4.750286e-02	5.622152e+02	-3.097872e+00	1.037951e+01	2.159391e-03	0.000000e+00	0.000000e+00	
-6.029749e-03	-4.906073e-02	4.569797e+02	-3.095079e+00	9.202080e+00	1.771067e-03	0.000000e+00	0.000000e+00	
-8.279381e-03	-5.018991e-02	4.264931e+02	-3.098322e+00	8.833395e+00	1.642877e-03	0.000000e+00	0.000000e+00	
4.060150e-04	-4.120091e-02	6.701757e+02	-1.607467e+00	1.182675e+01	2.680559e-03	-1.226853e+02	0.000000e+00	
-2.099748e-03	-4.234997e-02	5.787326e+02	-1.895672e+00	1.086277e+01	2.240764e-03	0.000000e+00	0.000000e+00	
-4.607123e-03	-4.411061e-02	5.073986e+02	-2.209120e+00	1.006177e+01	1.976075e-03	0.000000e+00	0.000000e+00	
6.675311e-02	-1.012396e-01	4.251711e+02	-8.446780e+00	5.192556e+00	1.648476e-03	-2.544385e+01	0.000000e+00	
1.005872e+00	-5.819598e-03	1.277888e+02	-8.929311e+00	-1.127770e+01	1.028877e-03	0.000000e+00	0.000000e+00	
1.005111e+00	-6.670840e-03	1.300937e+02	-9.589060e+00	-1.102459e+01	1.089332e-03	0.000000e+00	0.000000e+00	
1.000958e+00	-4.598801e-03	4.618480e+01	-1.405393e+01	-1.109135e+01	1.918428e-03	0.000000e+00	0.000000e+00	
9.998639e-01	-3.084368e-03	-1.015334e+02	-1.513813e+01	-7.825075e+00	2.624210e-03	0.000000e+00	0.000000e+00	
1.000388e+00	-3.851637e-03	-1.528022e+01	-1.475993e+01	-9.606939e+00	2.273904e-03	0.000000e+00	0.000000e+00	
9.988231e-01	-2.790719e-03	-1.599043e+02	-1.342951e+01	-4.992750e+00	2.843486e-03	0.000000e+00	0.000000e+00	
9.978687e-01	-1.937886e-03	-1.560144e+02	-1.249118e+01	-4.528978e+00	2.674425e-03	-3.027601e+02	0.000000e+00	
1.002547e+00	-5.271881e-03	1.056950e+02	-1.206588e+01	-1.205168e+01	1.403719e-03	0.000000e+00	0.000000e+00	
1.001317e+00	-5.540367e-03	7.977132e+01	-1.309173e+01	-1.095800e+01	1.574787e-03	0.000000e+00	0.000000e+00	
1.003994e+00	-6.392682e-03	1.283040e+02	-1.044235e+01	-1.133739e+01	1.100136e-03	0.000000e+00	0.000000e+00	
1.002959e+00	-6.105741e-03	1.234616e+02	-1.138850e+01	-1.150667e+01	1.333543e-03	0.000000e+00	0.000000e+00	
1.004291e+00	-7.477720e-03	1.378601e+02	-1.000401e+01	-1.055470e+01	1.013371e-03	0.000000e+00	0.000000e+00	
1.007098e+00	-2.490862e-03	9.726845e+01	-6.408635e+00	-1.249716e+01	9.769355e-04	0.000000e+00	0.000000e+00	
1.006441e+00	3.556250e-04	6.857492e+01	-3.718453e+00	-1.336409e+01	1.090837e-03	0.000000e+00	0.000000e+00	
1.006669e+00	-8.284491e-04	7.865338e+01	-4.879351e+00	-1.326089e+01	9.990999e-04	0.000000e+00	0.000000e+00	
1.007399e+00	-1.413940e-03	8.577204e+01	-5.382604e+00	-1.249967e+01	9.612138e-04	0.000000e+00	0.000000e+00	
1.006886e+00	1.164291e-03	6.376943e+01	-2.945482e+00	-1.266649e+01	1.030979e-03	0.000000e+00	0.000000e+00	
1.007183e+00	-5.728550e-03	1.229079e+02	-7.958601e+00	-1.070672e+01	9.156298e-04	0.000000e+00	0.000000e+00	
1.007889e+00	-3.249331e-03	1.032410e+02	-6.625716e+00	-1.155364e+01	9.080306e-04	0.000000e+00	0.000000e+00	
1.007565e+00	-4.487580e-03	1.133903e+02	-7.353227e+00	-1.120918e+01	9.097352e-04	0.000000e+00	0.000000e+00	
1.006211e+00	2.021719e-03	5.759969e+01	-1.607089e+00	-1.268510e+01	1.055618e-03	0.000000e+00	0.000000e+00	
1.005508e+00	2.875321e-03	5.119093e+01	-2.124409e-01	-1.241766e+01	1.061570e-03	0.000000e+00	0.000000e+00	
1.004691e+00	3.634881e-03	3.126164e+01	1.290434e+00	-1.177789e+01	8.333988e-04	0.000000e+00	0.000000e+00	
1.003700e+00	3.102046e-03	2.207660e+01	2.113736e+00	-1.223808e+01	8.073410e-04	0.000000e+00	0.000000e+00	
1.003033e+00	3.904862e-03	-2.531291e+01	3.448215e+00	-1.101472e+01	2.150767e-04	0.000000e+00	0.000000e+00	
1.001442e+00	2.160772e-03	-5.058176e+01	5.042305e+00	-1.177105e+01	8.110099e-05	0.000000e+00	0.000000e+00	
1.001850e+00	2.699926e-03	-2.473519e+01	4.336494e+00	-1.182759e+01	3.234493e-04	0.000000e+00	0.000000e+00	
1.002257e+00	3.370326e-03	-3.890964e+01	4.368973e+00	-1.107612e+01	7.319497e-05	0.000000e+00	0.000000e+00	
1.000986e+00	1.691147e-03	-6.291591e+01	5.723278e+00	-1.178859e+01	-1.303866e-04	0.000000e+00	0.000000e+00	
1.000831e+00	2.458471e-03	-9.911911e+01	6.112715e+00	-1.040112e+01	-1.200517e-04	0.000000e+00	0.000000e+00	
1.000737e+00	1.159788e-03	-8.961706e+01	6.776894e+00	-1.215903e+01	1.989741e-04	0.000000e+00	0.000000e+00	
1.000564e+00	4.789042e-05	1.223268e+02	4.187997e+00	-1.450956e+01	-6.881303e-04	0.000000e+00	0.000000e+00	
1.000720e+00	6.473626e-04	-4.211800e+01	5.888978e+00	-1.332483e+01	6.647550e-04	0.000000e+00	0.000000e+00	
1.000234e+00	3.573603e-05	1.479569e+02	8.402776e+00	-1.328884e+01	-1.696524e-03	0.000000e+00	0.000000e+00	
9.999629e-01	-1.365583e-05	-1.611134e+01	1.434768e+00	1.682637e+00	-6.033987e-03	-2.619932e+07	0.000000e+00	
-1.346057e-04	-5.853447e-02	5.073831e+02	-4.847097e+00	9.048514e+00	1.948477e-03	0.000000e+00	0.000000e+00	
6.058803e-03	-6.157863e-02	5.627333e+02	-5.902482e+00	9.177256e+00	2.152158e-03	0.000000e+00	0.000000e+00	
8.395228e-03	-6.486315e-02	5.492567e+02	-6.265369e+00	8.785221e+00	2.097723e-03	0.000000e+00	0.000000e+00	
1.106285e-02	-6.822771e-02	5.348403e+02	-6.575743e+00	8.390200e+00	2.044403e-03	0.000000e+00	0.000000e+00	
1.407367e-02	-7.166535e-02	5.198394e+02	-6.842092e+00	7.993882e+00	1.987052e-03	0.000000e+00	0.000000e+00	
1.745992e-02	-7.520590e-02	5.032864e+02	-7.055125e+00	7.597999e+00	1.927053e-03	0.000000e+00	0.000000e+00	
2.124268e-02	-7.880188e-02	4.868327e+02	-7.222839e+00	7.221948e+00	1.867016e-03	0.000000e+00	0.000000e+00	
2.546586e-02	-8.253140e-02	4.711778e+02	-7.358158e+00	6.867659e+00	1.807760e-03	0.000000e+00	0.000000e+00	
3.011997e-02	-8.633908e-02	4.570765e+02	-7.478992e+00	6.530575e+00	1.751989e-03	0.000000e+00	0.000000e+00	
3.525723e-02	-9.021587e-02	4.438322e+02	-7.583252e+00	6.208149e+00	1.700703e-03	0.000000e+00	0.000000e+00	
4.086568e-02	-9.417132e-02	4.311410e+02	-7.670060e+00	5.897051e+00	1.650604e-03	0.000000e+00	0.000000e+00	
4.694464e-02	-9.815991e-02	4.188790e+02	-7.739736e+00	5.597825e+00	1.602215e-03	0.000000e+00	0.000000e+00	
5.348821e-02	-1.021660e-01	4.070976e+02	-7.794372e+00	5.312372e+00	1.555809e-03	0.000000e+00	0.000000e+00	
6.052580e-02	-1.061583e-01	3.957468e+02	-7.834791e+00	5.041557e+00	1.510706e-03	0.000000e+00	0.000000e+00	
1.718852e-03	-6.214590e-02	5.001055e+02	-5.271530e+00	8.721793e+00	1.904549e-03	0.000000e+00	0.000000e+00	
-4.843250e-03	-5.295084e-02	4.687351e+02	-3.702154e+00	9.116904e+00	1.772894e-03	0.000000e+00	0.000000e+00	
-4.565012e-03	-5.790706e-02	4.454705e+02	-4.190927e+00	8.600903e+00	1.711482e-03	0.000000e+00	0.000000e+00	
-9.373032e-03	-5.161807e-02	4.008204e+02	-3.159079e+00	8.473483e+00	1.559503e-03	0.000000e+00	0.000000e+00	
-6.194083e-03	-4.672047e-02	4.608092e+02	-2.608265e+00	9.413455e+00	1.815205e-03	0.000000e+00	0.000000e+00	
-9.757308e-03	-4.910509e-02	3.982335e+02	-2.785741e+00	8.590499e+00	1.551703e-03	0.000000e+00	0.000000e+00	
3.518009e-05	-3.808492e-02	6.246212e+02	-3.105827e-01	1.157089e+01	2.553618e-03	1.557215e+02	0.000000e+00	
-2.559759e-03	-3.889300e-02	5.423543e+02	-7.760202e-01	1.066459e+01	2.119432e-03	0.000000e+00	0.000000e+00	
-5.473888e-03	-4.005267e-02	4.625887e+02	-1.232503e+00	9.779635e+00	1.783704e-03	0.000000e+00	0.000000e+00	
-8.534731e-03	-4.187517e-02	4.039570e+02	-1.648467e+00	9.034098e+00	1.603304e-03	0.000000e+00	0.000000e+00	
7.446654e-02	-1.048583e-01	4.132303e+02	-8.479760e+00	4.936044e+00	1.601999e-03	-2.153750e+01	0.000000e+00	
6.802291e-02	-1.101493e-01	3.847897e+02	-7.861005e+00	4.786635e+00	1.467748e-03	0.000000e+00	0.000000e+00	
1.008123e+00	-6.682435e-03	1.237631e+02	-7.478869e+00	-9.622956e+00	7.955044e-04	0.000000e+00	0.000000e+00	
1.006733e+00	-7.020003e-03	1.313990e+02	-8.325356e+00	-1.004773e+01	8.889742e-04	0.000000e+00	0.000000e+00	
1.005491e+00	-7.357253e-03	1.357161e+02	-9.092380e+00	-1.027470e+01	9.669877e-04	0.000000e+00	0.000000e+00	
9.962132e-01	-2.666479e-03	-7.790986e+01	-1.245606e+01	-4.678753e+00	2.235997e-03	2.293835e+02	0.000000e+00	
1.000343e+00	-5.287786e-03	3.725060e+01	-1.396144e+01	-9.491558e+00	1.653538e-03	0.000000e+00	0.000000e+00	
9.991466e-01	-4.568058e-03	-3.647667e+01	-1.422364e+01	-7.029209e+00	2.032481e-03	0.000000e+00	0.000000e+00	
9.975815e-01	-3.884934e-03	-8.529072e+01	-1.305242e+01	-5.037971e+00	2.329811e-03	0.000000e+00	0.000000e+00	
1.001328e+00	-6.378864e-03	8.474963e+01	-1.310020e+01	-1.006767e+01	1.538620e-03	0.000000e+00	0.000000e+00	
1.002015e+00	-6.601067e-03	1.140138e+02	-1.207596e+01	-1.060362e+01	1.400683e-03	0.000000e+00	0.000000e+00	
1.003161e+00	-7.150880e-03	1.319738e+02	-1.094234e+01	-1.062290e+01	1.211428e-03	0.000000e+00	0.000000e+00	
1.004771e+00	-8.324803e-03	1.452885e+02	-9.296004e+00	-9.798099e+00	9.175498e-04	0.000000e+00	0.000000e+00	
1.003445e+00	-8.292033e-03	1.435831e+02	-1.020218e+01	-9.914762e+00	1.122821e-03	0.000000e+00	0.000000e+00	
1.008242e+00	-2.079086e-03	9.169295e+01	-5.778096e+00	-1.168764e+01	8.684677e-04	0.000000e+00	0.000000e+00	
1.007473e+00	2.440083e-05	7.364193e+01	-4.203072e+00	-1.238259e+01	9.319185e-04	0.000000e+00	0.000000e+00	
1.008497e+00	-8.741088e-04	8.111850e+01	-4.914951e+00	-1.171321e+01	8.955341e-04	0.000000e+00	0.000000e+00	
1.007388e+00	2.087460e-03	6.040516e+01	-2.236319e+00	-1.195175e+01	1.024316e-03	0.000000e+00	0.000000e+00	
1.008088e+00	1.098656e-03	6.608834e+01	-3.264952e+00	-1.187842e+01	8.994611e-04	0.000000e+00	0.000000e+00	
1.009105e+00	-2.680681e-03	9.577983e+01	-5.876864e+00	-1.082751e+01	8.180709e-04	0.000000e+00	0.000000e+00	
1.008528e+00	-5.337740e-03	1.158119e+02	-7.070907e+00	-1.015195e+01	8.142030e-04	0.000000e+00	0.000000e+00	
1.008842e+00	-4.002670e-03	1.069919e+02	-6.580106e+00	-1.058038e+01	8.287599e-04	0.000000e+00	0.000000e+00	
1.009626e+00	-6.233863e-03	1.171651e+02	-6.852612e+00	-9.254079e+00	8.245243e-04	0.000000e+00	0.000000e+00	
1.006623e+00	2.995468e-03	5.472722e+01	-9.458712e-01	-1.180115e+01	1.018405e-03	0.000000e+00	0.000000e+00	
1.005861e+00	3.959601e-03	4.150150e+01	4.469873e-01	-1.132158e+01	8.883086e-04	0.000000e+00	0.000000e+00	
1.007920e+00	2.962086e-03	5.799627e+01	-1.733909e+00	-1.123951e+01	9.362537e-04	0.000000e+00	0.000000e+00	
1.005047e+00	4.887203e-03	1.006981e+01	1.748463e+00	-1.054196e+01	5.221370e-04	0.000000e+00	0.000000e+00	
1.003903e+00	4.472696e-03	-1.586112e+01	2.736847e+00	-1.058718e+01	3.413586e-04	0.000000e+00	0.000000e+00	
1.002936e+00	4.898644e-03	-5.741984e+01	3.886107e+00	-9.802637e+00	-3.791862e-05	0.000000e+00	0.000000e+00	
1.002131e+00	4.257788e-03	-7.576070e+01	4.673031e+00	-9.805643e+00	-1.392197e-04	0.000000e+00	0.000000e+00	
1.001946e+00	5.251017e-03	-9.310463e+01	4.872596e+00	-8.741181e+00	-3.025419e-04	0.000000e+00	0.000000e+00	
1.001389e+00	2.851432e-03	-7.104661e+01	5.553288e+00	-1.049875e+01	-1.377616e-04	0.000000e+00	0.000000e+00	
1.001407e+00	3.656334e-03	-8.711597e+01	5.455144e+00	-9.742994e+00	-3.970725e-04	0.000000e+00	0.000000e+00	
1.000394e+00	1.838976e-03	-1.412037e+02	6.990802e+00	-9.555989e+00	-6.189591e-04	0.000000e+00	0.000000e+00	
1.000335e+00	2.662374e-03	-1.212214e+02	6.654571e+00	-8.640282e+00	-6.985725e-04	0.000000e+00	0.000000e+00	
1.000226e+00	1.149884e-03	-1.135884e+02	7.052960e+00	-9.505910e+00	-1.478644e-03	0.000000e+00	0.000000e+00	
1.000104e+00	5.705436e-04	-1.079332e+02	7.630860e+00	-7.381983e+00	-5.837753e-04	0.000000e+00	0.000000e+00	
9.994346e-01	3.000817e-04	-9.357310e+01	4.032346e+00	6.919915e-01	-3.489012e-03	0.000000e+00	0.000000e+00	
9.987533e-01	-4.591655e-04	3.720236e+01	2.614994e-01	1.055423e+00	-2.475190e-03	-9.964159e+03	0.000000e+00	
-2.929776e-03	-6.220781e-02	4.376923e+02	-4.659312e+00	8.217326e+00	1.682145e-03	0.000000e+00	0.000000e+00	
3.889045e-03	-6.584593e-02	4.900993e+02	-5.629930e+00	8.371670e+00	1.872195e-03	0.000000e+00	0.000000e+00	
6.387489e-03	-6.961880e-02	4.792560e+02	-5.946223e+00	8.007407e+00	1.825450e-03	0.000000e+00	0.000000e+00	
9.230063e-03	-7.347324e-02	4.672949e+02	-6.209062e+00	7.643267e+00	1.781110e-03	0.000000e+00	0.000000e+00	
1.245890e-02	-7.738224e-02	4.543933e+02	-6.424163e+00	7.281337e+00	1.729283e-03	0.000000e+00	0.000000e+00	
1.606683e-02	-8.141498e-02	4.412203e+02	-6.599002e+00	6.928119e+00	1.679597e-03	0.000000e+00	0.000000e+00	
2.010034e-02	-8.547721e-02	4.287643e+02	-6.744326e+00	6.594219e+00	1.628004e-03	0.000000e+00	0.000000e+00	
2.454733e-02	-8.968441e-02	4.162195e+02	-6.860280e+00	6.268060e+00	1.580005e-03	0.000000e+00	0.000000e+00	
2.947076e-02	-9.394000e-02	4.048784e+02	-6.961843e+00	5.959028e+00	1.532613e-03	0.000000e+00	0.000000e+00	
3.485469e-02	-9.822287e-02	3.938991e+02	-7.043276e+00	5.666326e+00	1.488588e-03	0.000000e+00	0.000000e+00	
4.070052e-02	-1.026038e-01	3.829389e+02	-7.104214e+00	5.379956e+00	1.443679e-03	0.000000e+00	0.000000e+00	
4.700472e-02	-1.070092e-01	3.724854e+02	-7.150788e+00	5.106950e+00	1.400291e-03	0.000000e+00	0.000000e+00	
5.382776e-02	-1.114165e-01	3.624319e+02	-7.183951e+00	4.849317e+00	1.359819e-03	0.000000e+00	0.000000e+00	
6.111193e-02	-1.157726e-01	3.528544e+02	-7.205593e+00	4.606816e+00	1.319969e-03	0.000000e+00	0.000000e+00	
-9.837933e-04	-6.634597e-02	4.316075e+02	-5.020527e+00	7.906816e+00	1.650632e-03	0.000000e+00	0.000000e+00	
-8.833255e-03	-5.565611e-02	3.909991e+02	-3.587016e+00	8.161419e+00	1.537070e-03	0.000000e+00	0.000000e+00	