TITLE = "Visualization of the surface solution"
VARIABLES = "x""y""Conservative_1""Conservative_2""Conservative_3""Conservative_4""Pressure""Temperature""C<sub>p</sub>""Mach""<greek>m</greek>""C<sub>f</sub>_x""C<sub>f</sub>_y""h""y<sup>+</sup>"
ZONE NODES= 200, ELEMENTS= 200, DATAPACKING=POINT, ZONETYPE=FELINESEG
3.124498e-03	-5.543394e-02	1.243802e-01	3.624894e+00	-1.173402e+01	2.700949e+04	1.056127e+04	2.957981e+02	-5.261833e+00	2.863795e-01	1.825966e-05	0.000000e+00	0.000000e+00	0.000000e+00	0.000000e+00	
2.537646e-03	-5.337140e-02	1.243369e-01	3.207176e+00	-1.188792e+01	2.700156e+04	1.055676e+04	2.957745e+02	-5.304961e+00	2.872319e-01	1.825853e-05	0.000000e+00	0.000000e+00	0.000000e+00	0.000000e+00	
2.003081e-03	-5.130000e-02	1.245950e-01	2.761347e+00	-1.189558e+01	2.705491e+04	1.058258e+04	2.958838e+02	-5.058254e+00	2.842315e-01	1.826374e-05	0.000000e+00	0.000000e+00	0.000000e+00	0.000000e+00	
9.997621e-01	-1.104660e-03	1.310570e-01	7.110413e+00	2.230337e+00	2.828947e+04	1.123104e+04	2.985316e+02	1.137299e+00	1.641606e-01	1.838960e-05	0.000000e+00	0.000000e+00	0.000000e+00	0.000000e+00	
1.000000e+00	-1.000000e-03	1.135181e-01	-1.578250e+00	6.061948e+00	2.449821e+04	9.730153e+03	2.985967e+02	-1.320249e+01	1.592933e-01	1.839269e-05	0.000000e+00	0.000000e+00	0.000000e+00	0.000000e+00	
4.487486e-03	-5.964354e-02	1.244438e-01	4.070179e+00	-1.165324e+01	2.702456e+04	1.056495e+04	2.957499e+02	-5.226681e+00	2.877116e-01	1.825736e-05	0.000000e+00	0.000000e+00	0.000000e+00	0.000000e+00	
6.075662e-03	-6.387177e-02	1.242405e-01	4.647976e+00	-1.156833e+01	2.698405e+04	1.054341e+04	2.956299e+02	-5.432448e+00	2.911261e-01	1.825165e-05	0.000000e+00	0.000000e+00	0.000000e+00	0.000000e+00	
1.078855e-03	-4.702227e-02	1.246162e-01	2.204205e+00	-1.185090e+01	2.705604e+04	1.058922e+04	2.960190e+02	-4.994823e+00	2.804485e-01	1.827018e-05	0.000000e+00	0.000000e+00	0.000000e+00	0.000000e+00	
9.990485e-01	-1.418594e-03	1.277651e-01	4.515520e+00	2.211731e+00	2.755460e+04	1.098226e+04	2.994400e+02	-1.239587e+00	1.134454e-01	1.843265e-05	0.000000e+00	0.000000e+00	0.000000e+00	0.000000e+00	
1.000000e+00	0.000000e+00	2.422823e-01	1.938644e+01	1.030632e+02	5.863744e+04	1.437643e+04	2.067091e+02	3.118884e+01	1.501771e+00	1.366369e-05	0.000000e+00	0.000000e+00	0.000000e+00	0.000000e+00	
7.917903e-03	-6.818167e-02	1.241771e-01	5.193689e+00	-1.143943e+01	2.697274e+04	1.053488e+04	2.955417e+02	-5.513933e+00	2.935635e-01	1.824744e-05	0.000000e+00	0.000000e+00	0.000000e+00	0.000000e+00	
1.006240e-02	-7.264379e-02	1.240864e-01	5.737981e+00	-1.128902e+01	2.695572e+04	1.052381e+04	2.954468e+02	-5.619710e+00	2.961721e-01	1.824292e-05	0.000000e+00	0.000000e+00	0.000000e+00	0.000000e+00	
1.251909e-02	-7.722860e-02	1.239987e-01	6.276971e+00	-1.111393e+01	2.693940e+04	1.051298e+04	2.953514e+02	-5.723171e+00	2.987797e-01	1.823837e-05	0.000000e+00	0.000000e+00	0.000000e+00	0.000000e+00	
1.529738e-02	-8.190698e-02	1.239108e-01	6.814722e+00	-1.090030e+01	2.692279e+04	1.050238e+04	2.952629e+02	-5.824484e+00	3.011740e-01	1.823415e-05	0.000000e+00	0.000000e+00	0.000000e+00	0.000000e+00	
1.843145e-02	-8.667853e-02	1.238371e-01	7.342756e+00	-1.063475e+01	2.690857e+04	1.049370e+04	2.951944e+02	-5.907462e+00	3.029861e-01	1.823088e-05	0.000000e+00	0.000000e+00	0.000000e+00	0.000000e+00	
2.196161e-02	-9.155111e-02	1.237926e-01	7.838577e+00	-1.032380e+01	2.689977e+04	1.048845e+04	2.951527e+02	-5.957619e+00	3.040318e-01	1.822889e-05	0.000000e+00	0.000000e+00	0.000000e+00	0.000000e+00	
2.590787e-02	-9.651734e-02	1.237763e-01	8.299422e+00	-9.993467e+00	2.689669e+04	1.048601e+04	2.951229e+02	-5.980932e+00	3.047430e-01	1.822747e-05	0.000000e+00	0.000000e+00	0.000000e+00	0.000000e+00	
3.032086e-02	-1.016095e-01	1.237600e-01	8.737469e+00	-9.648999e+00	2.689360e+04	1.048361e+04	2.950942e+02	-6.003836e+00	3.054265e-01	1.822610e-05	0.000000e+00	0.000000e+00	0.000000e+00	0.000000e+00	
3.519676e-02	-1.067681e-01	1.237393e-01	9.160976e+00	-9.274446e+00	2.688933e+04	1.048106e+04	2.950719e+02	-6.028207e+00	3.059327e-01	1.822504e-05	0.000000e+00	0.000000e+00	0.000000e+00	0.000000e+00	
4.055945e-02	-1.119673e-01	1.237358e-01	9.558649e+00	-8.866919e+00	2.688826e+04	1.048054e+04	2.950657e+02	-6.033152e+00	3.059907e-01	1.822474e-05	0.000000e+00	0.000000e+00	0.000000e+00	0.000000e+00	
4.640551e-02	-1.171589e-01	1.237514e-01	9.922260e+00	-8.432892e+00	2.689076e+04	1.048226e+04	2.950769e+02	-6.016693e+00	3.055634e-01	1.822528e-05	0.000000e+00	0.000000e+00	0.000000e+00	0.000000e+00	
5.272092e-02	-1.222965e-01	1.237852e-01	1.024488e+01	-7.976819e+00	2.689652e+04	1.048622e+04	2.951078e+02	-5.978859e+00	3.045821e-01	1.822675e-05	0.000000e+00	0.000000e+00	0.000000e+00	0.000000e+00	
5.950360e-02	-1.273501e-01	1.238398e-01	1.052346e+01	-7.504717e+00	2.690614e+04	1.049265e+04	2.951584e+02	-5.917469e+00	3.030434e-01	1.822917e-05	0.000000e+00	0.000000e+00	0.000000e+00	0.000000e+00	
4.060150e-04	-4.269111e-02	1.246958e-01	1.419499e+00	-1.193860e+01	2.707293e+04	1.059734e+04	2.960570e+02	-4.917270e+00	2.795203e-01	1.827199e-05	0.000000e+00	0.000000e+00	0.000000e+00	0.000000e+00	
6.675311e-02	-1.322961e-01	1.239139e-01	1.075420e+01	-7.025271e+00	2.691932e+04	1.050140e+04	2.952281e+02	-5.833811e+00	3.009566e-01	1.823249e-05	0.000000e+00	0.000000e+00	0.000000e+00	0.000000e+00	
9.978687e-01	-1.936943e-03	1.288911e-01	3.896881e+00	1.750201e+00	2.779309e+04	1.108892e+04	2.997068e+02	-2.205835e-01	9.549882e-02	1.844529e-05	0.000000e+00	0.000000e+00	0.000000e+00	0.000000e+00	
9.999629e-01	-1.365582e-05	1.790678e-01	8.335525e+00	-2.509430e+01	3.911038e+04	1.486321e+04	2.891516e+02	3.583971e+01	4.331846e-01	1.794126e-05	0.000000e+00	0.000000e+00	0.000000e+00	0.000000e+00	
3.518009e-05	-3.835641e-02	1.244490e-01	4.842166e-01	-1.205227e+01	2.702176e+04	1.057489e+04	2.960156e+02	-5.131730e+00	2.810098e-01	1.827002e-05	0.000000e+00	0.000000e+00	0.000000e+00	0.000000e+00	
7.446654e-02	-1.371186e-01	1.240078e-01	1.093834e+01	-6.553193e+00	2.693635e+04	1.051231e+04	2.953110e+02	-5.729608e+00	2.984775e-01	1.823644e-05	0.000000e+00	0.000000e+00	0.000000e+00	0.000000e+00	
9.962132e-01	-2.661371e-03	1.287823e-01	3.433528e+00	1.519529e+00	2.776778e+04	1.108522e+04	2.998599e+02	-2.559555e-01	8.398774e-02	1.845253e-05	0.000000e+00	0.000000e+00	0.000000e+00	0.000000e+00	
9.987533e-01	-4.587851e-04	1.268599e-01	3.663233e+00	1.811022e+00	2.741387e+04	1.093922e+04	3.003948e+02	-1.650816e+00	9.271005e-02	1.847784e-05	0.000000e+00	0.000000e+00	0.000000e+00	0.000000e+00	
6.353361e-05	-3.461680e-02	1.246755e-01	-9.423564e-01	-1.194528e+01	2.706901e+04	1.059728e+04	2.961036e+02	-4.917794e+00	2.786068e-01	1.827421e-05	0.000000e+00	0.000000e+00	0.000000e+00	0.000000e+00	
8.264737e-02	-1.418125e-01	1.241090e-01	1.108375e+01	-6.093438e+00	2.695474e+04	1.052409e+04	2.954009e+02	-5.617058e+00	2.957837e-01	1.824073e-05	0.000000e+00	0.000000e+00	0.000000e+00	0.000000e+00	
9.940823e-01	-3.585975e-03	1.289001e-01	3.330262e+00	1.436511e+00	2.779459e+04	1.109743e+04	2.999158e+02	-1.392926e-01	8.104580e-02	1.845518e-05	0.000000e+00	0.000000e+00	0.000000e+00	0.000000e+00	
9.970564e-01	-1.080444e-03	1.305282e-01	2.487151e+00	9.184351e-01	2.819472e+04	1.126712e+04	3.007037e+02	1.481933e+00	5.843027e-02	1.849244e-05	0.000000e+00	0.000000e+00	0.000000e+00	0.000000e+00	
6.108891e-04	-3.065952e-02	1.252552e-01	-2.346238e+00	-1.123212e+01	2.718071e+04	1.066205e+04	2.965345e+02	-4.298979e+00	2.653710e-01	1.829472e-05	0.000000e+00	0.000000e+00	0.000000e+00	0.000000e+00	
1.772811e-03	-2.634817e-02	1.259296e-01	-3.454771e+00	-1.008520e+01	2.730601e+04	1.074191e+04	2.971557e+02	-3.535965e+00	2.449683e-01	1.832427e-05	0.000000e+00	0.000000e+00	0.000000e+00	0.000000e+00	
9.127835e-02	-1.463558e-01	1.242118e-01	1.119730e+01	-5.645699e+00	2.697336e+04	1.053614e+04	2.954944e+02	-5.501906e+00	2.929636e-01	1.824519e-05	0.000000e+00	0.000000e+00	0.000000e+00	0.000000e+00	
1.003586e-01	-1.507380e-01	1.243189e-01	1.128205e+01	-5.213340e+00	2.699287e+04	1.054865e+04	2.955902e+02	-5.382404e+00	2.900559e-01	1.824975e-05	0.000000e+00	0.000000e+00	0.000000e+00	0.000000e+00	
9.914854e-01	-4.696231e-03	1.289283e-01	3.337964e+00	1.411195e+00	2.780315e+04	1.110089e+04	2.999438e+02	-1.062340e-01	8.096045e-02	1.845651e-05	0.000000e+00	0.000000e+00	0.000000e+00	0.000000e+00	
9.948726e-01	-1.868534e-03	1.293472e-01	3.240442e+00	1.467597e+00	2.794540e+04	1.115859e+04	3.005265e+02	4.450932e-01	7.913560e-02	1.848407e-05	0.000000e+00	0.000000e+00	0.000000e+00	0.000000e+00	
9.884322e-01	-5.973825e-03	1.289506e-01	3.407738e+00	1.403526e+00	2.781103e+04	1.110334e+04	2.999582e+02	-8.276193e-02	8.231675e-02	1.845718e-05	0.000000e+00	0.000000e+00	0.000000e+00	0.000000e+00	
9.849038e-01	-7.410942e-03	1.289612e-01	3.496645e+00	1.399309e+00	2.781638e+04	1.110455e+04	2.999662e+02	-7.121893e-02	8.411323e-02	1.845756e-05	0.000000e+00	0.000000e+00	0.000000e+00	0.000000e+00	
9.809289e-01	-8.983653e-03	1.289686e-01	3.583470e+00	1.395594e+00	2.782075e+04	1.110537e+04	2.999711e+02	-6.343678e-02	8.588079e-02	1.845779e-05	0.000000e+00	0.000000e+00	0.000000e+00	0.000000e+00	
3.645682e-03	-2.178250e-02	1.266699e-01	-4.279157e+00	-8.689356e+00	2.744371e+04	1.082936e+04	2.978238e+02	-2.700497e+00	2.210225e-01	1.835601e-05	0.000000e+00	0.000000e+00	0.000000e+00	0.000000e+00	
1.098763e-01	-1.549453e-01	1.244241e-01	1.134556e+01	-4.793245e+00	2.701199e+04	1.056096e+04	2.956849e+02	-5.264814e+00	2.871578e-01	1.825427e-05	0.000000e+00	0.000000e+00	0.000000e+00	0.000000e+00	
9.922119e-01	-2.799621e-03	1.296532e-01	3.291080e+00	1.086750e+00	2.801082e+04	1.118580e+04	3.005481e+02	7.049989e-01	7.691707e-02	1.848508e-05	0.000000e+00	0.000000e+00	0.000000e+00	0.000000e+00	
9.764884e-01	-1.069568e-02	1.289747e-01	3.658919e+00	1.395130e+00	2.782448e+04	1.110601e+04	2.999742e+02	-5.727897e-02	8.744469e-02	1.845794e-05	0.000000e+00	0.000000e+00	0.000000e+00	0.000000e+00	
9.716110e-01	-1.254376e-02	1.289795e-01	3.720535e+00	1.403401e+00	2.782752e+04	1.110649e+04	2.999761e+02	-5.270804e-02	8.879316e-02	1.845803e-05	0.000000e+00	0.000000e+00	0.000000e+00	0.000000e+00	
6.317071e-03	-1.711622e-02	1.273531e-01	-4.808898e+00	-7.144650e+00	2.756960e+04	1.091136e+04	2.984693e+02	-1.917023e+00	1.952587e-01	1.838664e-05	0.000000e+00	0.000000e+00	0.000000e+00	0.000000e+00	
1.198146e-01	-1.589536e-01	1.245279e-01	1.138962e+01	-4.379447e+00	2.703080e+04	1.057317e+04	2.957802e+02	-5.148134e+00	2.842183e-01	1.825881e-05	0.000000e+00	0.000000e+00	0.000000e+00	0.000000e+00	
1.301865e-01	-1.627501e-01	1.246361e-01	1.140942e+01	-3.969734e+00	2.705039e+04	1.058598e+04	2.958812e+02	-5.025755e+00	2.810775e-01	1.826362e-05	0.000000e+00	0.000000e+00	0.000000e+00	0.000000e+00	
9.662775e-01	-1.455334e-02	1.289814e-01	3.772560e+00	1.424221e+00	2.782971e+04	1.110667e+04	2.999763e+02	-5.099946e-02	9.004280e-02	1.845804e-05	0.000000e+00	0.000000e+00	0.000000e+00	0.000000e+00	
1.409639e-01	-1.663087e-01	1.247517e-01	1.140543e+01	-3.568370e+00	2.707138e+04	1.059959e+04	2.959873e+02	-4.895718e+00	2.777528e-01	1.826867e-05	0.000000e+00	0.000000e+00	0.000000e+00	0.000000e+00	
1.521370e-01	-1.696131e-01	1.248722e-01	1.137317e+01	-3.175018e+00	2.709317e+04	1.061395e+04	2.961022e+02	-4.758511e+00	2.741208e-01	1.827414e-05	0.000000e+00	0.000000e+00	0.000000e+00	0.000000e+00	
1.637051e-01	-1.726536e-01	1.250026e-01	1.131681e+01	-2.797523e+00	2.711690e+04	1.062933e+04	2.962220e+02	-4.611575e+00	2.702884e-01	1.827985e-05	0.000000e+00	0.000000e+00	0.000000e+00	0.000000e+00	
1.756580e-01	-1.754233e-01	1.251358e-01	1.123571e+01	-2.438135e+00	2.714106e+04	1.064516e+04	2.963473e+02	-4.460375e+00	2.662328e-01	1.828581e-05	0.000000e+00	0.000000e+00	0.000000e+00	0.000000e+00	
9.605069e-01	-1.674063e-02	1.289792e-01	3.822126e+00	1.458112e+00	2.783084e+04	1.110639e+04	2.999738e+02	-5.370546e-02	9.134802e-02	1.845792e-05	0.000000e+00	0.000000e+00	0.000000e+00	0.000000e+00	
1.879741e-01	-1.779171e-01	1.252726e-01	1.113796e+01	-2.102567e+00	2.716603e+04	1.066130e+04	2.964725e+02	-4.306158e+00	2.621272e-01	1.829177e-05	0.000000e+00	0.000000e+00	0.000000e+00	0.000000e+00	
2.006410e-01	-1.801363e-01	1.254057e-01	1.102697e+01	-1.789886e+00	2.719025e+04	1.067707e+04	2.965959e+02	-4.155454e+00	2.580207e-01	1.829764e-05	0.000000e+00	0.000000e+00	0.000000e+00	0.000000e+00	
2.136354e-01	-1.820807e-01	1.255348e-01	1.091023e+01	-1.497314e+00	2.721381e+04	1.069231e+04	2.967138e+02	-4.009858e+00	2.540409e-01	1.830325e-05	0.000000e+00	0.000000e+00	0.000000e+00	0.000000e+00	
2.269565e-01	-1.837450e-01	1.256559e-01	1.078511e+01	-1.216974e+00	2.723573e+04	1.070679e+04	2.968293e+02	-3.871475e+00	2.500845e-01	1.830875e-05	0.000000e+00	0.000000e+00	0.000000e+00	0.000000e+00	
2.405831e-01	-1.851197e-01	1.257775e-01	1.065272e+01	-9.498816e-01	2.725782e+04	1.072125e+04	2.969427e+02	-3.733399e+00	2.461457e-01	1.831414e-05	0.000000e+00	0.000000e+00	0.000000e+00	0.000000e+00	
2.545034e-01	-1.861983e-01	1.258959e-01	1.051050e+01	-6.942951e-01	2.727924e+04	1.073543e+04	2.970560e+02	-3.597845e+00	2.421525e-01	1.831952e-05	0.000000e+00	0.000000e+00	0.000000e+00	0.000000e+00	
2.687049e-01	-1.869755e-01	1.260156e-01	1.036111e+01	-4.523674e-01	2.730097e+04	1.074968e+04	2.971679e+02	-3.461702e+00	2.381475e-01	1.832484e-05	0.000000e+00	0.000000e+00	0.000000e+00	0.000000e+00	
2.831543e-01	-1.874465e-01	1.261325e-01	1.020254e+01	-2.226898e-01	2.732212e+04	1.076372e+04	2.972799e+02	-3.327601e+00	2.340738e-01	1.833017e-05	0.000000e+00	0.000000e+00	0.000000e+00	0.000000e+00	
2.978479e-01	-1.876096e-01	1.262508e-01	1.003665e+01	-6.939101e-03	2.734358e+04	1.077785e+04	2.973915e+02	-3.192579e+00	2.299543e-01	1.833547e-05	0.000000e+00	0.000000e+00	0.000000e+00	0.000000e+00	
3.127718e-01	-1.874642e-01	1.263674e-01	9.862349e+00	1.944280e-01	2.736468e+04	1.079187e+04	2.975034e+02	-3.058661e+00	2.257537e-01	1.834079e-05	0.000000e+00	0.000000e+00	0.000000e+00	0.000000e+00	
3.278929e-01	-1.870156e-01	1.264849e-01	9.683275e+00	3.785481e-01	2.738601e+04	1.080591e+04	2.976139e+02	-2.924468e+00	2.215337e-01	1.834604e-05	0.000000e+00	0.000000e+00	0.000000e+00	0.000000e+00	
3.431989e-01	-1.862727e-01	1.265991e-01	9.500881e+00	5.458796e-01	2.740671e+04	1.081961e+04	2.977223e+02	-2.793592e+00	2.173173e-01	1.835119e-05	0.000000e+00	0.000000e+00	0.000000e+00	0.000000e+00	
3.586875e-01	-1.852450e-01	1.267110e-01	9.317809e+00	6.963843e-01	2.742705e+04	1.083301e+04	2.978278e+02	-2.665549e+00	2.131461e-01	1.835620e-05	0.000000e+00	0.000000e+00	0.000000e+00	0.000000e+00	
3.743255e-01	-1.839453e-01	1.268183e-01	9.136429e+00	8.310277e-01	2.744651e+04	1.084587e+04	2.979291e+02	-2.542729e+00	2.090636e-01	1.836101e-05	0.000000e+00	0.000000e+00	0.000000e+00	0.000000e+00	
3.900895e-01	-1.823883e-01	1.269208e-01	8.958793e+00	9.504454e-01	2.746513e+04	1.085816e+04	2.980257e+02	-2.425334e+00	2.051027e-01	1.836559e-05	0.000000e+00	0.000000e+00	0.000000e+00	0.000000e+00	
9.542990e-01	-1.912670e-02	1.289719e-01	3.876331e+00	1.502147e+00	2.783081e+04	1.110552e+04	2.999675e+02	-6.194591e-02	9.283692e-02	1.845762e-05	0.000000e+00	0.000000e+00	0.000000e+00	0.000000e+00	
9.476630e-01	-2.172058e-02	1.289593e-01	3.940320e+00	1.551216e+00	2.782962e+04	1.110404e+04	2.999568e+02	-7.614272e-02	9.457761e-02	1.845712e-05	0.000000e+00	0.000000e+00	0.000000e+00	0.000000e+00	
4.059766e-01	-1.805876e-01	1.270172e-01	8.788050e+00	1.057522e+00	2.748268e+04	1.086971e+04	2.981162e+02	-2.314995e+00	2.013308e-01	1.836989e-05	0.000000e+00	0.000000e+00	0.000000e+00	0.000000e+00	
4.219629e-01	-1.785531e-01	1.271064e-01	8.623445e+00	1.157658e+00	2.749887e+04	1.088043e+04	2.982009e+02	-2.212558e+00	1.977373e-01	1.837391e-05	0.000000e+00	0.000000e+00	0.000000e+00	0.000000e+00	
9.406073e-01	-2.451899e-02	1.289423e-01	4.015888e+00	1.599389e+00	2.782751e+04	1.110202e+04	2.999419e+02	-9.540195e-02	9.655806e-02	1.845641e-05	0.000000e+00	0.000000e+00	0.000000e+00	0.000000e+00	
4.380248e-01	-1.762856e-01	1.271905e-01	8.462886e+00	1.253872e+00	2.751413e+04	1.089056e+04	2.982812e+02	-2.115760e+00	1.942752e-01	1.837772e-05	0.000000e+00	0.000000e+00	0.000000e+00	0.000000e+00	
4.541381e-01	-1.737865e-01	1.272717e-01	8.303575e+00	1.346080e+00	2.752888e+04	1.090035e+04	2.983588e+02	-2.022180e+00	1.908744e-01	1.838140e-05	0.000000e+00	0.000000e+00	0.000000e+00	0.000000e+00	
9.331391e-01	-2.750706e-02	1.289222e-01	4.101380e+00	1.642202e+00	2.782474e+04	1.109962e+04	2.999237e+02	-1.183690e-01	9.870461e-02	1.845555e-05	0.000000e+00	0.000000e+00	0.000000e+00	0.000000e+00	
9.252459e-01	-3.067203e-02	1.289001e-01	4.193194e+00	1.677567e+00	2.782153e+04	1.109696e+04	2.999033e+02	-1.437229e-01	1.009233e-01	1.845459e-05	0.000000e+00	0.000000e+00	0.000000e+00	0.000000e+00	
4.702995e-01	-1.710540e-01	1.273511e-01	8.143984e+00	1.434158e+00	2.754329e+04	1.090993e+04	2.984347e+02	-1.930726e+00	1.874961e-01	1.838500e-05	0.000000e+00	0.000000e+00	0.000000e+00	0.000000e+00	
4.864747e-01	-1.680921e-01	1.274291e-01	7.982598e+00	1.518165e+00	2.755744e+04	1.091935e+04	2.985097e+02	-1.840709e+00	1.841039e-01	1.838856e-05	0.000000e+00	0.000000e+00	0.000000e+00	0.000000e+00	
5.026498e-01	-1.649022e-01	1.275066e-01	7.818140e+00	1.596753e+00	2.757150e+04	1.092873e+04	2.985844e+02	-1.751092e+00	1.806601e-01	1.839210e-05	0.000000e+00	0.000000e+00	0.000000e+00	0.000000e+00	
5.188115e-01	-1.614900e-01	1.275849e-01	7.651189e+00	1.666078e+00	2.758573e+04	1.093817e+04	2.986591e+02	-1.660857e+00	1.771547e-01	1.839565e-05	0.000000e+00	0.000000e+00	0.000000e+00	0.000000e+00	
9.169520e-01	-3.398522e-02	1.288770e-01	4.287674e+00	1.705081e+00	2.781804e+04	1.109417e+04	2.998817e+02	-1.703812e-01	1.031344e-01	1.845356e-05	0.000000e+00	0.000000e+00	0.000000e+00	0.000000e+00	
9.082432e-01	-3.743550e-02	1.288534e-01	4.382102e+00	1.725491e+00	2.781437e+04	1.109132e+04	2.998596e+02	-1.976354e-01	1.052879e-01	1.845252e-05	0.000000e+00	0.000000e+00	0.000000e+00	0.000000e+00	
8.991326e-01	-4.100338e-02	1.288306e-01	4.473987e+00	1.739885e+00	2.781081e+04	1.108855e+04	2.998376e+02	-2.241069e-01	1.073410e-01	1.845148e-05	0.000000e+00	0.000000e+00	0.000000e+00	0.000000e+00	
8.896241e-01	-4.467770e-02	1.288085e-01	4.561373e+00	1.751331e+00	2.780730e+04	1.108585e+04	2.998160e+02	-2.498736e-01	1.092786e-01	1.845046e-05	0.000000e+00	0.000000e+00	0.000000e+00	0.000000e+00	
5.349280e-01	-1.578771e-01	1.276630e-01	7.484581e+00	1.724031e+00	2.759997e+04	1.094757e+04	2.987328e+02	-1.571047e+00	1.736354e-01	1.839914e-05	0.000000e+00	0.000000e+00	0.000000e+00	0.000000e+00	
5.509981e-01	-1.540806e-01	1.277388e-01	7.320867e+00	1.771230e+00	2.761379e+04	1.095669e+04	2.988044e+02	-1.483923e+00	1.701572e-01	1.840253e-05	0.000000e+00	0.000000e+00	0.000000e+00	0.000000e+00	
8.797148e-01	-4.845986e-02	1.287860e-01	4.644478e+00	1.762907e+00	2.780362e+04	1.108312e+04	2.997947e+02	-2.759803e-01	1.111309e-01	1.844945e-05	0.000000e+00	0.000000e+00	0.000000e+00	0.000000e+00	
8.694220e-01	-5.234587e-02	1.287628e-01	4.725405e+00	1.775402e+00	2.779977e+04	1.108033e+04	2.997730e+02	-3.026721e-01	1.129476e-01	1.844842e-05	0.000000e+00	0.000000e+00	0.000000e+00	0.000000e+00	
8.587630e-01	-5.633133e-02	1.287387e-01	4.805798e+00	1.789047e+00	2.779568e+04	1.107742e+04	2.997504e+02	-3.304543e-01	1.147652e-01	1.844735e-05	0.000000e+00	0.000000e+00	0.000000e+00	0.000000e+00	
5.669903e-01	-1.501249e-01	1.278116e-01	7.161160e+00	1.808789e+00	2.762708e+04	1.096546e+04	2.988733e+02	-1.400096e+00	1.667441e-01	1.840580e-05	0.000000e+00	0.000000e+00	0.000000e+00	0.000000e+00	
5.829036e-01	-1.460272e-01	1.278811e-01	7.007140e+00	1.837794e+00	2.763978e+04	1.097384e+04	2.989390e+02	-1.320065e+00	1.634331e-01	1.840892e-05	0.000000e+00	0.000000e+00	0.000000e+00	0.000000e+00	
5.987068e-01	-1.418127e-01	1.279471e-01	6.860112e+00	1.859323e+00	2.765187e+04	1.098178e+04	2.990010e+02	-1.244226e+00	1.602539e-01	1.841186e-05	0.000000e+00	0.000000e+00	0.000000e+00	0.000000e+00	
6.143888e-01	-1.374999e-01	1.280087e-01	6.720123e+00	1.876126e+00	2.766315e+04	1.098920e+04	2.990592e+02	-1.173283e+00	1.572201e-01	1.841461e-05	0.000000e+00	0.000000e+00	0.000000e+00	0.000000e+00	
6.299284e-01	-1.331026e-01	1.280662e-01	6.585897e+00	1.890361e+00	2.767367e+04	1.099615e+04	2.991139e+02	-1.106915e+00	1.543138e-01	1.841721e-05	0.000000e+00	0.000000e+00	0.000000e+00	0.000000e+00	
6.453142e-01	-1.286296e-01	1.281208e-01	6.455807e+00	1.902450e+00	2.768367e+04	1.100276e+04	2.991661e+02	-1.043774e+00	1.514987e-01	1.841968e-05	0.000000e+00	0.000000e+00	0.000000e+00	0.000000e+00	
6.605349e-01	-1.240896e-01	1.281731e-01	6.329533e+00	1.912365e+00	2.769326e+04	1.100908e+04	2.992159e+02	-9.833553e-01	1.487656e-01	1.842204e-05	0.000000e+00	0.000000e+00	0.000000e+00	0.000000e+00	
6.755695e-01	-1.194946e-01	1.282233e-01	6.206217e+00	1.920079e+00	2.770246e+04	1.101515e+04	2.992636e+02	-9.253476e-01	1.460942e-01	1.842430e-05	0.000000e+00	0.000000e+00	0.000000e+00	0.000000e+00	
8.477169e-01	-6.042497e-02	1.287134e-01	4.886739e+00	1.803509e+00	2.779130e+04	1.107436e+04	2.997267e+02	-3.596725e-01	1.166038e-01	1.844623e-05	0.000000e+00	0.000000e+00	0.000000e+00	0.000000e+00	
6.903975e-01	-1.148569e-01	1.282716e-01	6.085727e+00	1.925683e+00	2.771130e+04	1.102099e+04	2.993095e+02	-8.695703e-01	1.434809e-01	1.842647e-05	0.000000e+00	0.000000e+00	0.000000e+00	0.000000e+00	
7.050083e-01	-1.101856e-01	1.283183e-01	5.967266e+00	1.928606e+00	2.771985e+04	1.102664e+04	2.993540e+02	-8.155686e-01	1.409028e-01	1.842858e-05	0.000000e+00	0.000000e+00	0.000000e+00	0.000000e+00	
8.363209e-01	-6.461265e-02	1.286867e-01	4.969425e+00	1.818758e+00	2.778664e+04	1.107114e+04	2.997015e+02	-3.904952e-01	1.184884e-01	1.844504e-05	0.000000e+00	0.000000e+00	0.000000e+00	0.000000e+00	
8.245836e-01	-6.888999e-02	1.286586e-01	5.053769e+00	1.834449e+00	2.778170e+04	1.106774e+04	2.996750e+02	-4.228926e-01	1.204146e-01	1.844378e-05	0.000000e+00	0.000000e+00	0.000000e+00	0.000000e+00	
8.124942e-01	-7.325891e-02	1.286287e-01	5.140455e+00	1.850508e+00	2.777637e+04	1.106414e+04	2.996469e+02	-4.573700e-01	1.223970e-01	1.844245e-05	0.000000e+00	0.000000e+00	0.000000e+00	0.000000e+00	
8.000812e-01	-7.770674e-02	1.285969e-01	5.230224e+00	1.866764e+00	2.777065e+04	1.106030e+04	2.996170e+02	-4.940498e-01	1.244500e-01	1.844103e-05	0.000000e+00	0.000000e+00	0.000000e+00	0.000000e+00	
7.193922e-01	-1.054916e-01	1.283635e-01	5.851314e+00	1.928521e+00	2.772812e+04	1.103211e+04	2.993970e+02	-7.633635e-01	1.383669e-01	1.843062e-05	0.000000e+00	0.000000e+00	0.000000e+00	0.000000e+00	
7.335207e-01	-1.007950e-01	1.284074e-01	5.738760e+00	1.924583e+00	2.773617e+04	1.103740e+04	2.994383e+02	-7.127637e-01	1.358844e-01	1.843257e-05	0.000000e+00	0.000000e+00	0.000000e+00	0.000000e+00	
7.473954e-01	-9.610560e-02	1.284489e-01	5.629229e+00	1.917797e+00	2.774377e+04	1.104244e+04	2.994780e+02	-6.646514e-01	1.334542e-01	1.843445e-05	0.000000e+00	0.000000e+00	0.000000e+00	0.000000e+00	
7.610077e-01	-9.143624e-02	1.284891e-01	5.523816e+00	1.908214e+00	2.775111e+04	1.104728e+04	2.995156e+02	-6.183975e-01	1.310976e-01	1.843623e-05	0.000000e+00	0.000000e+00	0.000000e+00	0.000000e+00	
7.873537e-01	-8.222693e-02	1.285629e-01	5.323756e+00	1.882362e+00	2.776449e+04	1.105619e+04	2.995852e+02	-5.332559e-01	1.265823e-01	1.843953e-05	0.000000e+00	0.000000e+00	0.000000e+00	0.000000e+00	
7.743298e-01	-8.680605e-02	1.285269e-01	5.421818e+00	1.896250e+00	2.775796e+04	1.105185e+04	2.995513e+02	-5.747776e-01	1.288027e-01	1.843792e-05	0.000000e+00	0.000000e+00	0.000000e+00	0.000000e+00	
9.890844e-01	-3.841585e-03	1.295880e-01	3.380325e+00	1.097005e+00	2.799745e+04	1.117949e+04	3.005297e+02	6.447031e-01	7.891229e-02	1.848422e-05	0.000000e+00	0.000000e+00	0.000000e+00	0.000000e+00	
9.835138e-03	-1.259573e-02	1.280159e-01	-5.049465e+00	-5.489603e+00	2.769258e+04	1.099012e+04	2.990672e+02	-1.164576e+00	1.680616e-01	1.841499e-05	0.000000e+00	0.000000e+00	0.000000e+00	0.000000e+00	
9.854708e-01	-4.968723e-03	1.295927e-01	3.405299e+00	1.017023e+00	2.799824e+04	1.117980e+04	3.005272e+02	6.477311e-01	7.891092e-02	1.848410e-05	0.000000e+00	0.000000e+00	0.000000e+00	0.000000e+00	
1.424138e-02	-8.509803e-03	1.286694e-01	-4.890760e+00	-3.804296e+00	2.781519e+04	1.106640e+04	2.996137e+02	-4.357321e-01	1.387767e-01	1.844088e-05	0.000000e+00	0.000000e+00	0.000000e+00	0.000000e+00	
9.814000e-01	-6.147588e-03	1.295677e-01	3.461464e+00	9.689301e-01	2.799284e+04	1.117719e+04	3.005152e+02	6.227824e-01	7.982924e-02	1.848353e-05	0.000000e+00	0.000000e+00	0.000000e+00	0.000000e+00	
1.948044e-02	-5.094367e-03	1.291912e-01	-4.264530e+00	-2.373706e+00	2.791246e+04	1.112811e+04	3.000673e+02	1.538238e-01	1.087893e-01	1.846235e-05	0.000000e+00	0.000000e+00	0.000000e+00	0.000000e+00	
9.768522e-01	-7.379170e-03	1.295518e-01	3.528436e+00	9.355572e-01	2.798960e+04	1.117527e+04	3.005002e+02	6.044028e-01	8.108135e-02	1.848282e-05	0.000000e+00	0.000000e+00	0.000000e+00	0.000000e+00	
2.546083e-02	-2.270727e-03	1.294966e-01	-3.379714e+00	-1.403116e+00	2.796758e+04	1.116635e+04	3.003884e+02	5.191830e-01	8.133192e-02	1.847754e-05	0.000000e+00	0.000000e+00	0.000000e+00	0.000000e+00	
3.203755e-02	8.667121e-05	1.296905e-01	-2.506181e+00	-7.862080e-01	2.800290e+04	1.119052e+04	3.005886e+02	7.501242e-01	5.827092e-02	1.848700e-05	0.000000e+00	0.000000e+00	0.000000e+00	0.000000e+00	
9.718555e-01	-8.677191e-03	1.295311e-01	3.596582e+00	9.327942e-01	2.798543e+04	1.117285e+04	3.004834e+02	5.813505e-01	8.254544e-02	1.848202e-05	0.000000e+00	0.000000e+00	0.000000e+00	0.000000e+00	
3.916171e-02	1.981988e-03	1.298118e-01	-1.721776e+00	-3.917760e-01	2.802545e+04	1.120538e+04	3.007065e+02	8.920819e-01	3.912945e-02	1.849257e-05	0.000000e+00	0.000000e+00	0.000000e+00	0.000000e+00	
9.663888e-01	-1.009141e-02	1.295158e-01	3.648949e+00	9.597147e-01	2.798236e+04	1.117096e+04	3.004681e+02	5.632640e-01	8.383426e-02	1.848130e-05	0.000000e+00	0.000000e+00	0.000000e+00	0.000000e+00	
9.604691e-01	-1.167048e-02	1.295077e-01	3.673393e+00	1.006375e+00	2.798070e+04	1.116988e+04	3.004575e+02	5.529020e-01	8.463438e-02	1.848080e-05	0.000000e+00	0.000000e+00	0.000000e+00	0.000000e+00	
4.680418e-02	3.407391e-03	1.298739e-01	-1.032822e+00	-1.591547e-01	2.803711e+04	1.121316e+04	3.007715e+02	9.664422e-01	2.314369e-02	1.849565e-05	0.000000e+00	0.000000e+00	0.000000e+00	0.000000e+00	
5.490741e-02	4.375160e-03	1.299013e-01	-4.423068e-01	-4.075585e-02	2.804248e+04	1.121669e+04	3.008024e+02	1.000137e+00	9.834593e-03	1.849711e-05	0.000000e+00	0.000000e+00	0.000000e+00	0.000000e+00	
9.540933e-01	-1.345830e-02	1.295089e-01	3.665018e+00	1.055224e+00	2.798078e+04	1.116985e+04	3.004540e+02	5.526318e-01	8.474852e-02	1.848064e-05	0.000000e+00	0.000000e+00	0.000000e+00	0.000000e+00	
6.343257e-02	4.906051e-03	1.299080e-01	5.513410e-02	2.006236e-03	2.804407e+04	1.121762e+04	3.008122e+02	1.009068e+00	1.221449e-03	1.849757e-05	0.000000e+00	0.000000e+00	0.000000e+00	0.000000e+00	
9.472667e-01	-1.547072e-02	1.295171e-01	3.627700e+00	1.090546e+00	2.798212e+04	1.117069e+04	3.004576e+02	5.606781e-01	8.416872e-02	1.848081e-05	0.000000e+00	0.000000e+00	0.000000e+00	0.000000e+00	
9.399951e-01	-1.769628e-02	1.295297e-01	3.571538e+00	1.104544e+00	2.798424e+04	1.117212e+04	3.004667e+02	5.742883e-01	8.305647e-02	1.848124e-05	0.000000e+00	0.000000e+00	0.000000e+00	0.000000e+00	
7.237286e-02	5.029736e-03	1.299019e-01	4.697095e-01	-2.464288e-03	2.804334e+04	1.121699e+04	3.008093e+02	1.003068e+00	1.039981e-02	1.849743e-05	0.000000e+00	0.000000e+00	0.000000e+00	0.000000e+00	
9.322861e-01	-2.010460e-02	1.295444e-01	3.506862e+00	1.096916e+00	2.798669e+04	1.117383e+04	3.004788e+02	5.906837e-01	8.162318e-02	1.848181e-05	0.000000e+00	0.000000e+00	0.000000e+00	0.000000e+00	
9.241278e-01	-2.266057e-02	1.295584e-01	3.442807e+00	1.071952e+00	2.798898e+04	1.117552e+04	3.004919e+02	6.068360e-01	8.008930e-02	1.848243e-05	0.000000e+00	0.000000e+00	0.000000e+00	0.000000e+00	
8.169832e-02	4.794848e-03	1.298901e-01	8.141227e-01	-3.333380e-02	2.804157e+04	1.121560e+04	3.007995e+02	9.897835e-01	1.804223e-02	1.849697e-05	0.000000e+00	0.000000e+00	0.000000e+00	0.000000e+00	
9.140383e-02	4.231830e-03	1.298746e-01	1.101015e+00	-7.878673e-02	2.803911e+04	1.121377e+04	3.007861e+02	9.722448e-01	2.444558e-02	1.849633e-05	0.000000e+00	0.000000e+00	0.000000e+00	0.000000e+00	
1.014763e-01	3.361552e-03	1.298581e-01	1.340715e+00	-1.312624e-01	2.803646e+04	1.121179e+04	3.007711e+02	9.533462e-01	2.983816e-02	1.849563e-05	0.000000e+00	0.000000e+00	0.000000e+00	0.000000e+00	
9.155475e-01	-2.531784e-02	1.295711e-01	3.384103e+00	1.036747e+00	2.799105e+04	1.117708e+04	3.005043e+02	6.217633e-01	7.860335e-02	1.848301e-05	0.000000e+00	0.000000e+00	0.000000e+00	0.000000e+00	
9.065337e-01	-2.805139e-02	1.295822e-01	3.332541e+00	9.975112e-01	2.799281e+04	1.117845e+04	3.005153e+02	6.347710e-01	7.724684e-02	1.848354e-05	0.000000e+00	0.000000e+00	0.000000e+00	0.000000e+00	
1.118924e-01	2.208074e-03	1.298418e-01	1.542223e+00	-1.871916e-01	2.803382e+04	1.120981e+04	3.007559e+02	9.344252e-01	3.441540e-02	1.849491e-05	0.000000e+00	0.000000e+00	0.000000e+00	0.000000e+00	
1.226615e-01	7.750400e-04	1.298256e-01	1.712026e+00	-2.446482e-01	2.803119e+04	1.120787e+04	3.007412e+02	9.158595e-01	3.831724e-02	1.849421e-05	0.000000e+00	0.000000e+00	0.000000e+00	0.000000e+00	
8.971042e-01	-3.083856e-02	1.295925e-01	3.286574e+00	9.583102e-01	2.799447e+04	1.117970e+04	3.005251e+02	6.467566e-01	7.601397e-02	1.848400e-05	0.000000e+00	0.000000e+00	0.000000e+00	0.000000e+00	
8.872672e-01	-3.366785e-02	1.296018e-01	3.244529e+00	9.202516e-01	2.799596e+04	1.118083e+04	3.005339e+02	6.575666e-01	7.487673e-02	1.848442e-05	0.000000e+00	0.000000e+00	0.000000e+00	0.000000e+00	
8.770203e-01	-3.653327e-02	1.296111e-01	3.204429e+00	8.835017e-01	2.799749e+04	1.118195e+04	3.005422e+02	6.682000e-01	7.379323e-02	1.848481e-05	0.000000e+00	0.000000e+00	0.000000e+00	0.000000e+00	
8.663811e-01	-3.942359e-02	1.296199e-01	3.165158e+00	8.471096e-01	2.799892e+04	1.118300e+04	3.005502e+02	6.782978e-01	7.273419e-02	1.848519e-05	0.000000e+00	0.000000e+00	0.000000e+00	0.000000e+00	