TITLE = "Visualization of the volumetric solution"
VARIABLES = "x""y""Conservative_1""Conservative_2""Conservative_3""Conservative_4""Conservative_5""Pressure""Temperature""C<sub>p</sub>""Mach""<greek>m</greek>""C<sub>f</sub>_x""C<sub>f</sub>_y""h""y<sup>+</sup>""<greek>m</greek><sub>t</sub>"
ZONE NODES= 5233, ELEMENTS= 10216, DATAPACKING=POINT, ZONETYPE=FEQUADRILATERAL
1.002199e+00	-1.282514e-03	9.847348e-01	3.031138e-02	-2.111374e-02	2.483972e+00	1.750435e-06	9.933118e-01	1.008710e+00	-7.100571e-01	3.156687e-02	5.593945e-08	0.000000e+00	0.000000e+00	0.000000e+00	0.000000e+00	1.702883e-06	
1.002611e+00	-8.932374e-04	9.834394e-01	3.383123e-02	-1.785461e-02	2.483868e+00	2.052513e-06	9.932498e-01	1.009976e+00	-7.166424e-01	3.271187e-02	5.599328e-08	0.000000e+00	0.000000e+00	0.000000e+00	0.000000e+00	2.003218e-06	
1.002291e+00	-1.592870e-03	9.855484e-01	2.704450e-02	-1.938104e-02	2.484309e+00	1.700910e-06	9.934988e-01	1.008067e+00	-6.902043e-01	2.841796e-02	5.591208e-08	0.000000e+00	0.000000e+00	0.000000e+00	0.000000e+00	1.654359e-06	
1.001805e+00	-1.525938e-03	9.864269e-01	2.489013e-02	-2.237205e-02	2.484297e+00	1.606785e-06	9.934917e-01	1.007162e+00	-6.909566e-01	2.857167e-02	5.587355e-08	0.000000e+00	0.000000e+00	0.000000e+00	0.000000e+00	1.560508e-06	
1.002470e+00	-1.983986e-03	9.861747e-01	2.376615e-02	-1.651430e-02	2.484182e+00	1.694718e-06	9.935030e-01	1.007431e+00	-6.897655e-01	2.471044e-02	5.588501e-08	0.000000e+00	0.000000e+00	0.000000e+00	0.000000e+00	1.649219e-06	
1.002686e+00	-2.478811e-03	9.868280e-01	2.008077e-02	-1.325120e-02	2.484124e+00	1.914844e-06	9.935321e-01	1.006794e+00	-6.866694e-01	2.053527e-02	5.585786e-08	0.000000e+00	0.000000e+00	0.000000e+00	0.000000e+00	1.872312e-06	
1.002759e+00	-1.438835e-03	9.844113e-01	2.985138e-02	-1.672806e-02	2.484114e+00	1.845973e-06	9.934077e-01	1.009139e+00	-6.998802e-01	2.924489e-02	5.595769e-08	0.000000e+00	0.000000e+00	0.000000e+00	0.000000e+00	1.798402e-06	
1.003175e+00	-1.022347e-03	9.835508e-01	3.242897e-02	-1.389861e-02	2.484091e+00	2.110445e-06	9.933834e-01	1.009997e+00	-7.024598e-01	3.016689e-02	5.599419e-08	0.000000e+00	0.000000e+00	0.000000e+00	0.000000e+00	2.061248e-06	
1.003071e+00	-1.981655e-03	9.853229e-01	2.603328e-02	-1.387732e-02	2.484174e+00	1.792401e-06	9.934929e-01	1.008292e+00	-6.908357e-01	2.520006e-02	5.592164e-08	0.000000e+00	0.000000e+00	0.000000e+00	0.000000e+00	1.746252e-06	
1.003124e+00	-6.257720e-04	9.833538e-01	3.430696e-02	-1.366649e-02	2.483710e+00	2.292764e-06	9.932065e-01	1.010019e+00	-7.212415e-01	3.158109e-02	5.599515e-08	0.000000e+00	0.000000e+00	0.000000e+00	0.000000e+00	2.242303e-06	
1.002158e+00	-9.405711e-04	9.838846e-01	3.376792e-02	-2.205467e-02	2.483980e+00	1.878502e-06	9.932612e-01	1.009530e+00	-7.154313e-01	3.448128e-02	5.597434e-08	0.000000e+00	0.000000e+00	0.000000e+00	0.000000e+00	1.830035e-06	
1.001764e+00	-1.147577e-03	9.853176e-01	3.027173e-02	-2.536120e-02	2.484128e+00	1.674086e-06	9.933347e-01	1.008137e+00	-7.076245e-01	3.373667e-02	5.591504e-08	0.000000e+00	0.000000e+00	0.000000e+00	0.000000e+00	1.626827e-06	
1.002635e+00	-3.367396e-04	9.832143e-01	3.627367e-02	-1.648035e-02	2.483593e+00	2.344805e-06	9.931144e-01	1.010069e+00	-7.310222e-01	3.407633e-02	5.599726e-08	0.000000e+00	0.000000e+00	0.000000e+00	0.000000e+00	2.293682e-06	
1.002141e+00	-6.017335e-04	9.831819e-01	3.653757e-02	-2.181192e-02	2.483812e+00	2.096105e-06	9.931566e-01	1.010145e+00	-7.265355e-01	3.639485e-02	5.600051e-08	0.000000e+00	0.000000e+00	0.000000e+00	0.000000e+00	2.046158e-06	
1.001397e+00	-1.354642e-03	9.870625e-01	2.339116e-02	-2.595904e-02	2.484132e+00	1.528064e-06	9.934054e-01	1.006426e+00	-7.001239e-01	2.982370e-02	5.584221e-08	0.000000e+00	0.000000e+00	0.000000e+00	0.000000e+00	1.481387e-06	
1.001943e+00	-1.943705e-03	9.870308e-01	2.056466e-02	-1.837579e-02	2.484239e+00	1.607603e-06	9.935415e-01	1.006596e+00	-6.856704e-01	2.353686e-02	5.584946e-08	0.000000e+00	0.000000e+00	0.000000e+00	0.000000e+00	1.562371e-06	
1.001499e+00	-1.771922e-03	9.875395e-01	1.796536e-02	-2.027302e-02	2.484154e+00	1.514772e-06	9.935131e-01	1.006049e+00	-6.886861e-01	2.311244e-02	5.582615e-08	0.000000e+00	0.000000e+00	0.000000e+00	0.000000e+00	1.468577e-06	
1.002117e+00	-2.378238e-03	9.873603e-01	1.725538e-02	-1.453051e-02	2.484121e+00	1.770910e-06	9.935452e-01	1.006264e+00	-6.852863e-01	1.924924e-02	5.583530e-08	0.000000e+00	0.000000e+00	0.000000e+00	0.000000e+00	1.728383e-06	
1.002299e+00	-2.866624e-03	9.876018e-01	1.427967e-02	-1.099249e-02	2.483958e+00	2.507901e-06	9.935175e-01	1.005990e+00	-6.882249e-01	1.537544e-02	5.582363e-08	0.000000e+00	0.000000e+00	0.000000e+00	0.000000e+00	2.466699e-06	
1.002918e+00	-2.997965e-03	9.872766e-01	1.693496e-02	-1.022863e-02	2.483979e+00	2.921327e-06	9.935123e-01	1.006316e+00	-6.887766e-01	1.688302e-02	5.583752e-08	0.000000e+00	0.000000e+00	0.000000e+00	0.000000e+00	2.876687e-06	
1.003332e+00	-2.537596e-03	9.862458e-01	2.222713e-02	-1.136759e-02	2.484157e+00	2.108727e-06	9.935366e-01	1.007392e+00	-6.861977e-01	2.131516e-02	5.588337e-08	0.000000e+00	0.000000e+00	0.000000e+00	0.000000e+00	2.065381e-06	
1.003367e+00	-1.521498e-03	9.841037e-01	2.970821e-02	-1.292266e-02	2.484104e+00	1.922040e-06	9.934285e-01	1.009475e+00	-6.976718e-01	2.769195e-02	5.597201e-08	0.000000e+00	0.000000e+00	0.000000e+00	0.000000e+00	1.874105e-06	
1.003708e+00	-7.426047e-04	9.835876e-01	3.310225e-02	-1.080652e-02	2.483842e+00	2.285997e-06	9.932903e-01	1.009865e+00	-7.123459e-01	2.977415e-02	5.598856e-08	0.000000e+00	0.000000e+00	0.000000e+00	0.000000e+00	2.236122e-06	
1.003727e+00	-2.033994e-03	9.848541e-01	2.672007e-02	-1.095967e-02	2.484219e+00	1.894627e-06	9.935183e-01	1.008797e+00	-6.881363e-01	2.467545e-02	5.594317e-08	0.000000e+00	0.000000e+00	0.000000e+00	0.000000e+00	1.848105e-06	
1.003176e+00	-1.031835e-04	9.838976e-01	3.562461e-02	-1.251233e-02	2.483535e+00	2.480193e-06	9.931242e-01	1.009378e+00	-7.299775e-01	3.228263e-02	5.596785e-08	0.000000e+00	0.000000e+00	0.000000e+00	0.000000e+00	2.429764e-06	
1.002791e+00	2.408249e-04	9.841470e-01	3.691118e-02	-1.405445e-02	2.483134e+00	2.529084e-06	9.929367e-01	1.008931e+00	-7.498828e-01	3.376776e-02	5.594886e-08	0.000000e+00	0.000000e+00	0.000000e+00	0.000000e+00	2.478914e-06	
1.001746e+00	-8.017345e-04	9.841326e-01	3.514806e-02	-2.657102e-02	2.483930e+00	1.800596e-06	9.931775e-01	1.009191e+00	-7.243191e-01	3.766637e-02	5.595990e-08	0.000000e+00	0.000000e+00	0.000000e+00	0.000000e+00	1.752274e-06	
1.001384e+00	-9.938412e-04	9.859380e-01	3.052185e-02	-2.999504e-02	2.484003e+00	1.590687e-06	9.932297e-01	1.007396e+00	-7.187795e-01	3.654807e-02	5.588350e-08	0.000000e+00	0.000000e+00	0.000000e+00	0.000000e+00	1.543328e-06	
1.002334e+00	5.875492e-04	9.843869e-01	3.830933e-02	-1.632399e-02	2.482677e+00	2.560883e-06	9.927184e-01	1.008464e+00	-7.730620e-01	3.560199e-02	5.592896e-08	0.000000e+00	0.000000e+00	0.000000e+00	0.000000e+00	2.511084e-06	
1.002258e+00	9.941299e-05	9.833526e-01	3.811061e-02	-1.804861e-02	2.483300e+00	2.437616e-06	9.929584e-01	1.009768e+00	-7.475770e-01	3.606638e-02	5.598447e-08	0.000000e+00	0.000000e+00	0.000000e+00	0.000000e+00	2.386155e-06	
1.002173e+00	-2.935302e-04	9.828907e-01	3.801465e-02	-2.045000e-02	2.483492e+00	2.273381e-06	9.930177e-01	1.010303e+00	-7.412835e-01	3.692735e-02	5.600722e-08	0.000000e+00	0.000000e+00	0.000000e+00	0.000000e+00	2.221962e-06	
1.001742e+00	-4.380368e-04	9.830263e-01	3.890660e-02	-2.610965e-02	2.483572e+00	2.056924e-06	9.929823e-01	1.010128e+00	-7.450405e-01	4.008142e-02	5.599976e-08	0.000000e+00	0.000000e+00	0.000000e+00	0.000000e+00	2.006753e-06	
1.001042e+00	-1.159964e-03	9.877145e-01	2.191336e-02	-2.967854e-02	2.484020e+00	1.442178e-06	9.933324e-01	1.005688e+00	-7.078693e-01	3.147775e-02	5.581076e-08	0.000000e+00	0.000000e+00	0.000000e+00	0.000000e+00	1.394443e-06	
1.003593e+00	-3.180477e-03	9.870371e-01	1.844708e-02	-8.704272e-03	2.483986e+00	3.734044e-06	9.935100e-01	1.006558e+00	-6.890140e-01	1.740847e-02	5.584783e-08	0.000000e+00	0.000000e+00	0.000000e+00	0.000000e+00	3.681057e-06	
1.001099e+00	-1.589829e-03	9.879938e-01	1.423927e-02	-2.132666e-02	2.484175e+00	1.398716e-06	9.935367e-01	1.005610e+00	-6.861784e-01	2.187471e-02	5.580745e-08	0.000000e+00	0.000000e+00	0.000000e+00	0.000000e+00	1.350098e-06	
1.000730e+00	-1.400067e-03	9.880698e-01	8.926270e-03	-2.066578e-02	2.483938e+00	1.206183e-06	9.934725e-01	1.005468e+00	-6.930033e-01	1.920270e-02	5.580138e-08	0.000000e+00	0.000000e+00	0.000000e+00	0.000000e+00	1.149561e-06	
1.001596e+00	-2.238221e-03	9.877773e-01	1.364288e-02	-1.489069e-02	2.484131e+00	1.628625e-06	9.935696e-01	1.005864e+00	-6.826885e-01	1.722913e-02	5.581826e-08	0.000000e+00	0.000000e+00	0.000000e+00	0.000000e+00	1.585021e-06	
1.001151e+00	-2.062823e-03	9.879989e-01	9.786073e-03	-1.431646e-02	2.484128e+00	1.466410e-06	9.935902e-01	1.005659e+00	-6.805026e-01	1.479249e-02	5.580954e-08	0.000000e+00	0.000000e+00	0.000000e+00	0.000000e+00	1.419765e-06	
1.001735e+00	-2.755596e-03	9.878850e-01	1.081532e-02	-1.052325e-02	2.483979e+00	2.268073e-06	9.935456e-01	1.005730e+00	-6.852417e-01	1.287300e-02	5.581255e-08	0.000000e+00	0.000000e+00	0.000000e+00	0.000000e+00	2.228268e-06	
1.001942e+00	-3.256699e-03	9.879943e-01	9.544339e-03	-7.667850e-03	2.483875e+00	3.478753e-06	9.935196e-01	1.005592e+00	-6.880027e-01	1.044377e-02	5.580669e-08	0.000000e+00	0.000000e+00	0.000000e+00	0.000000e+00	3.431730e-06	
1.002533e+00	-3.432766e-03	9.878294e-01	1.207939e-02	-7.842425e-03	2.483839e+00	4.133437e-06	9.934935e-01	1.005734e+00	-6.907696e-01	1.228664e-02	5.581272e-08	0.000000e+00	0.000000e+00	0.000000e+00	0.000000e+00	4.079401e-06	
1.003403e+00	-3.604866e-03	9.876049e-01	1.508523e-02	-7.301173e-03	2.484015e+00	5.135180e-06	9.935493e-01	1.006019e+00	-6.848464e-01	1.429892e-02	5.582486e-08	0.000000e+00	0.000000e+00	0.000000e+00	0.000000e+00	5.069109e-06	
1.004050e+00	-2.644882e-03	9.858958e-01	2.313337e-02	-9.063545e-03	2.484168e+00	2.562942e-06	9.935421e-01	1.007756e+00	-6.856097e-01	2.121660e-02	5.589883e-08	0.000000e+00	0.000000e+00	0.000000e+00	0.000000e+00	2.517040e-06	
1.003832e+00	8.028770e-08	9.844700e-01	3.546144e-02	-9.862691e-03	2.483566e+00	2.532271e-06	9.931511e-01	1.008818e+00	-7.271161e-01	3.146028e-02	5.594405e-08	0.000000e+00	0.000000e+00	0.000000e+00	0.000000e+00	2.482902e-06	
1.004048e+00	-1.419932e-03	9.838254e-01	3.011524e-02	-9.805397e-03	2.483992e+00	2.061667e-06	9.933928e-01	1.009725e+00	-7.014590e-01	2.707590e-02	5.598261e-08	0.000000e+00	0.000000e+00	0.000000e+00	0.000000e+00	2.013170e-06	
1.004427e+00	-6.254646e-04	9.839757e-01	3.308537e-02	-8.240425e-03	2.483845e+00	2.382636e-06	9.933017e-01	1.009478e+00	-7.111325e-01	2.914797e-02	5.597212e-08	0.000000e+00	0.000000e+00	0.000000e+00	0.000000e+00	2.333093e-06	
1.004480e+00	-2.024707e-03	9.845039e-01	2.717072e-02	-8.366736e-03	2.484096e+00	2.047941e-06	9.934741e-01	1.009111e+00	-6.928329e-01	2.429528e-02	5.595652e-08	0.000000e+00	0.000000e+00	0.000000e+00	0.000000e+00	2.000897e-06	
1.003363e+00	4.677824e-04	9.849797e-01	3.737989e-02	-1.139949e-02	2.483299e+00	2.641274e-06	9.930094e-01	1.008152e+00	-7.421691e-01	3.339598e-02	5.591570e-08	0.000000e+00	0.000000e+00	0.000000e+00	0.000000e+00	2.592390e-06	
1.002875e+00	8.072455e-04	9.851897e-01	3.920484e-02	-1.335273e-02	2.482855e+00	2.699686e-06	9.927936e-01	1.007718e+00	-7.650715e-01	3.539309e-02	5.589723e-08	0.000000e+00	0.000000e+00	0.000000e+00	0.000000e+00	2.650896e-06	
1.004040e+00	6.882339e-04	9.855878e-01	3.904690e-02	-9.576917e-03	2.483481e+00	2.802640e-06	9.930644e-01	1.007586e+00	-7.363287e-01	3.434560e-02	5.589160e-08	0.000000e+00	0.000000e+00	0.000000e+00	0.000000e+00	2.754082e-06	
1.002398e+00	1.095216e-03	9.852813e-01	4.131268e-02	-1.592745e-02	2.482421e+00	2.742452e-06	9.925704e-01	1.007398e+00	-7.887753e-01	3.783990e-02	5.588360e-08	0.000000e+00	0.000000e+00	0.000000e+00	0.000000e+00	2.693558e-06	
1.001384e+00	-6.429956e-04	9.844446e-01	3.707502e-02	-3.169247e-02	2.483814e+00	1.736639e-06	9.930422e-01	1.008733e+00	-7.386854e-01	4.169183e-02	5.594044e-08	0.000000e+00	0.000000e+00	0.000000e+00	0.000000e+00	1.688454e-06	
1.001052e+00	-8.433661e-04	9.866231e-01	3.101820e-02	-3.478071e-02	2.483662e+00	1.493947e-06	9.930246e-01	1.006488e+00	-7.405490e-01	3.979174e-02	5.584486e-08	0.000000e+00	0.000000e+00	0.000000e+00	0.000000e+00	1.445819e-06	
1.001917e+00	8.276535e-04	9.844198e-01	3.948344e-02	-1.917271e-02	2.482134e+00	2.558890e-06	9.924621e-01	1.008170e+00	-8.002677e-01	3.752989e-02	5.591645e-08	0.000000e+00	0.000000e+00	0.000000e+00	0.000000e+00	2.509199e-06	
1.001875e+00	3.722851e-04	9.833065e-01	3.927614e-02	-2.055286e-02	2.482743e+00	2.450092e-06	9.926977e-01	1.009551e+00	-7.752595e-01	3.791999e-02	5.597521e-08	0.000000e+00	0.000000e+00	0.000000e+00	0.000000e+00	2.398425e-06	
1.001806e+00	-3.903301e-05	9.826249e-01	4.026310e-02	-2.342036e-02	2.483274e+00	2.301510e-06	9.928678e-01	1.010424e+00	-7.571933e-01	3.985559e-02	5.601236e-08	0.000000e+00	0.000000e+00	0.000000e+00	0.000000e+00	2.249290e-06	
1.001447e+00	-2.537531e-04	9.828637e-01	4.153023e-02	-2.994281e-02	2.483643e+00	2.062208e-06	9.929237e-01	1.010235e+00	-7.512669e-01	4.380185e-02	5.600433e-08	0.000000e+00	0.000000e+00	0.000000e+00	0.000000e+00	2.011680e-06	
1.000704e+00	-9.934300e-04	9.883934e-01	1.932615e-02	-3.212063e-02	2.484072e+00	1.286789e-06	9.933446e-01	1.005009e+00	-7.065806e-01	3.197390e-02	5.578183e-08	0.000000e+00	0.000000e+00	0.000000e+00	0.000000e+00	1.234576e-06	
1.000351e+00	-1.274307e-03	9.869545e-01	1.366386e-03	-1.200827e-02	2.482168e+00	7.830265e-07	9.928378e-01	1.005961e+00	-7.603865e-01	1.031863e-02	5.582240e-08	0.000000e+00	0.000000e+00	0.000000e+00	0.000000e+00	6.809572e-07	
3.124498e-03	-4.958983e-02	9.491103e-01	0.000000e+00	0.000000e+00	2.418695e+00	1.000000e-10	9.674781e-01	1.019353e+00	-3.452729e+00	0.000000e+00	5.639115e-08	9.172906e-05	-1.889590e-04	-1.357678e-06	7.726541e+01	1.264325e-21	
2.537646e-03	-4.826432e-02	9.518174e-01	0.000000e+00	0.000000e+00	2.418746e+00	1.000000e-10	9.674983e-01	1.016475e+00	-3.450581e+00	0.000000e+00	5.626923e-08	8.605887e-05	-2.044482e-04	-1.095167e-06	5.135340e+01	1.287142e-21	
2.003081e-03	-4.692571e-02	9.534317e-01	0.000000e+00	0.000000e+00	2.424535e+00	1.000000e-10	9.698142e-01	1.017183e+00	-3.204711e+00	0.000000e+00	5.629924e-08	7.573156e-05	-2.149048e-04	-1.292577e-06	4.729142e+01	1.293825e-21	
1.004448e+00	-3.640128e-03	9.871397e-01	1.811052e-02	-6.271630e-03	2.483977e+00	6.060695e-06	9.935163e-01	1.006460e+00	-6.883521e-01	1.635626e-02	5.584364e-08	0.000000e+00	0.000000e+00	0.000000e+00	0.000000e+00	5.981012e-06	
1.000738e+00	-1.890834e-03	9.879471e-01	5.358929e-03	-1.200906e-02	2.483993e+00	1.265758e-06	9.935620e-01	1.005683e+00	-6.834973e-01	1.121796e-02	5.581056e-08	0.000000e+00	0.000000e+00	0.000000e+00	0.000000e+00	1.211940e-06	
1.000393e+00	-1.641247e-03	9.872874e-01	1.449632e-03	-8.646884e-03	2.482762e+00	9.706825e-07	9.930893e-01	1.005877e+00	-7.336772e-01	7.483393e-03	5.581880e-08	0.000000e+00	0.000000e+00	0.000000e+00	0.000000e+00	8.950434e-07	
1.001206e+00	-2.530846e-03	9.879800e-01	7.516270e-03	-9.615500e-03	2.483936e+00	1.910905e-06	9.935441e-01	1.005632e+00	-6.853990e-01	1.041098e-02	5.580837e-08	0.000000e+00	0.000000e+00	0.000000e+00	0.000000e+00	1.870642e-06	
1.000761e+00	-2.350441e-03	9.877510e-01	4.039420e-03	-7.585343e-03	2.483252e+00	1.662717e-06	9.932857e-01	1.005603e+00	-7.128349e-01	7.332688e-03	5.580715e-08	0.000000e+00	0.000000e+00	0.000000e+00	0.000000e+00	1.619607e-06	
1.001356e+00	-3.177248e-03	9.880986e-01	6.401907e-03	-6.018631e-03	2.483694e+00	3.199864e-06	9.934618e-01	1.005428e+00	-6.941319e-01	7.495357e-03	5.579967e-08	0.000000e+00	0.000000e+00	0.000000e+00	0.000000e+00	3.155574e-06	
1.001629e+00	-3.712269e-03	9.882480e-01	6.790134e-03	-4.523849e-03	2.483713e+00	4.598282e-06	9.934719e-01	1.005286e+00	-6.930669e-01	6.959342e-03	5.579363e-08	0.000000e+00	0.000000e+00	0.000000e+00	0.000000e+00	4.541235e-06	
1.000049e+00	-1.488339e-03	9.864237e-01	-3.831032e-04	-1.739335e-03	2.481615e+00	5.689127e-07	9.926453e-01	1.006307e+00	-7.808184e-01	1.521169e-03	5.583715e-08	0.000000e+00	0.000000e+00	0.000000e+00	0.000000e+00	4.149127e-07	
9.997621e-01	-1.104662e-03	9.855695e-01	0.000000e+00	0.000000e+00	2.480999e+00	1.000000e-10	9.923997e-01	1.006930e+00	-8.068954e-01	0.000000e+00	5.586368e-08	-3.569990e-06	-1.570872e-06	-3.287700e-07	1.632661e+00	1.512117e-21	
1.002256e+00	-3.801971e-03	9.881917e-01	9.306939e-03	-5.597803e-03	2.483992e+00	5.155810e-06	9.935731e-01	1.005446e+00	-6.823219e-01	9.263450e-03	5.580043e-08	0.000000e+00	0.000000e+00	0.000000e+00	0.000000e+00	5.092534e-06	
1.002917e+00	-4.125187e-03	9.880872e-01	1.112644e-02	-5.189767e-03	2.483864e+00	6.563120e-06	9.935153e-01	1.005494e+00	-6.884588e-01	1.047256e-02	5.580247e-08	0.000000e+00	0.000000e+00	0.000000e+00	0.000000e+00	6.483456e-06	
1.003948e+00	-4.396732e-03	9.878920e-01	1.369796e-02	-4.573098e-03	2.483826e+00	8.424882e-06	9.934881e-01	1.005665e+00	-6.913410e-01	1.231976e-02	5.580977e-08	0.000000e+00	0.000000e+00	0.000000e+00	0.000000e+00	8.321975e-06	
1.004993e+00	-2.855765e-03	9.857959e-01	2.312101e-02	-6.595156e-03	2.484134e+00	3.777009e-06	9.935362e-01	1.007852e+00	-6.862388e-01	2.053258e-02	5.590292e-08	0.000000e+00	0.000000e+00	0.000000e+00	0.000000e+00	3.718855e-06	
1.004597e+00	1.571062e-04	9.850585e-01	3.631618e-02	-7.940940e-03	2.483707e+00	2.672366e-06	9.932022e-01	1.008267e+00	-7.216975e-01	3.176348e-02	5.592061e-08	0.000000e+00	0.000000e+00	0.000000e+00	0.000000e+00	2.623436e-06	
1.004846e+00	-1.314333e-03	9.838551e-01	3.030883e-02	-7.283524e-03	2.483969e+00	2.178378e-06	9.933900e-01	1.009691e+00	-7.017540e-01	2.664839e-02	5.598120e-08	0.000000e+00	0.000000e+00	0.000000e+00	0.000000e+00	2.129625e-06	
1.005245e+00	-4.818387e-04	9.844327e-01	3.367791e-02	-6.419786e-03	2.483885e+00	2.508813e-06	9.933153e-01	1.009023e+00	-7.096880e-01	2.930185e-02	5.595277e-08	0.000000e+00	0.000000e+00	0.000000e+00	0.000000e+00	2.459521e-06	
1.005387e+00	-2.030420e-03	9.843950e-01	2.723766e-02	-6.060180e-03	2.484073e+00	2.420118e-06	9.934710e-01	1.009220e+00	-6.931550e-01	2.384709e-02	5.596114e-08	0.000000e+00	0.000000e+00	0.000000e+00	0.000000e+00	2.371351e-06	
1.005607e+00	-3.661400e-03	9.867613e-01	2.005861e-02	-4.585758e-03	2.483980e+00	7.549479e-06	9.935063e-01	1.006835e+00	-6.894104e-01	1.756339e-02	5.585965e-08	0.000000e+00	0.000000e+00	0.000000e+00	0.000000e+00	7.448410e-06	
1.004851e+00	9.939512e-04	9.861830e-01	4.216868e-02	-8.157543e-03	2.483852e+00	2.988093e-06	9.931665e-01	1.007081e+00	-7.254841e-01	3.667871e-02	5.587012e-08	0.000000e+00	0.000000e+00	0.000000e+00	0.000000e+00	2.939636e-06	
1.003470e+00	1.110987e-03	9.858377e-01	4.206678e-02	-1.146727e-02	2.483161e+00	2.880534e-06	9.928787e-01	1.007142e+00	-7.560393e-01	3.724681e-02	5.587271e-08	0.000000e+00	0.000000e+00	0.000000e+00	0.000000e+00	2.832019e-06	
1.002915e+00	1.443786e-03	9.859015e-01	4.527940e-02	-1.346328e-02	2.482720e+00	2.921533e-06	9.926354e-01	1.006830e+00	-7.818740e-01	4.035721e-02	5.585942e-08	0.000000e+00	0.000000e+00	0.000000e+00	0.000000e+00	2.872844e-06	
1.004225e+00	1.599971e-03	9.865775e-01	4.785078e-02	-9.841149e-03	2.483807e+00	3.071058e-06	9.930391e-01	1.006550e+00	-7.390097e-01	4.171306e-02	5.584747e-08	0.000000e+00	0.000000e+00	0.000000e+00	0.000000e+00	3.023060e-06	
1.002627e+00	1.749833e-03	9.861083e-01	4.950684e-02	-1.478241e-02	2.482845e+00	2.969515e-06	9.925966e-01	1.006580e+00	-7.859894e-01	4.413650e-02	5.584875e-08	0.000000e+00	0.000000e+00	0.000000e+00	0.000000e+00	2.921010e-06	
1.001962e+00	1.359859e-03	9.852330e-01	4.435082e-02	-1.847007e-02	2.481778e+00	2.789360e-06	9.922427e-01	1.007115e+00	-8.235627e-01	4.106658e-02	5.587154e-08	0.000000e+00	0.000000e+00	0.000000e+00	0.000000e+00	2.739929e-06	
1.001117e+00	-4.442492e-04	9.847981e-01	3.973634e-02	-3.647180e-02	2.484723e+00	1.742093e-06	9.932983e-01	1.008631e+00	-7.114945e-01	4.609003e-02	5.593610e-08	0.000000e+00	0.000000e+00	0.000000e+00	0.000000e+00	1.694589e-06	
1.000801e+00	-6.098115e-04	9.876517e-01	3.397143e-02	-3.914633e-02	2.485915e+00	1.463654e-06	9.938219e-01	1.006247e+00	-6.559028e-01	4.421531e-02	5.583459e-08	0.000000e+00	0.000000e+00	0.000000e+00	0.000000e+00	1.416370e-06	
1.001534e+00	1.064606e-03	9.843997e-01	4.153715e-02	-2.239296e-02	2.481381e+00	2.569585e-06	9.921001e-01	1.007822e+00	-8.387067e-01	4.035628e-02	5.590167e-08	0.000000e+00	0.000000e+00	0.000000e+00	0.000000e+00	2.519764e-06	
1.001487e+00	6.121339e-04	9.831473e-01	4.018913e-02	-2.394820e-02	2.482001e+00	2.445604e-06	9.923553e-01	1.009366e+00	-8.116041e-01	4.002990e-02	5.596735e-08	0.000000e+00	0.000000e+00	0.000000e+00	0.000000e+00	2.393584e-06	
1.001470e+00	1.599766e-04	9.822981e-01	4.220777e-02	-2.686959e-02	2.483054e+00	2.297997e-06	9.927121e-01	1.010602e+00	-7.737318e-01	4.282268e-02	5.601990e-08	0.000000e+00	0.000000e+00	0.000000e+00	0.000000e+00	2.245037e-06	
1.001140e+00	-3.746021e-05	9.825404e-01	4.483664e-02	-3.547940e-02	2.483567e+00	2.071488e-06	9.927614e-01	1.010403e+00	-7.684982e-01	4.892753e-02	5.601144e-08	0.000000e+00	0.000000e+00	0.000000e+00	0.000000e+00	2.020250e-06	
1.000462e+00	-6.868059e-04	9.939324e-01	2.285379e-02	-3.883636e-02	2.500310e+00	1.277723e-06	9.997154e-01	1.005818e+00	-3.020994e-02	3.820561e-02	5.581632e-08	0.000000e+00	0.000000e+00	0.000000e+00	0.000000e+00	1.232519e-06	
1.000000e+00	-1.000000e-03	9.842602e-01	0.000000e+00	0.000000e+00	2.480483e+00	1.000000e-10	9.921930e-01	1.008060e+00	-8.288377e-01	0.000000e+00	5.591177e-08	-2.662051e-05	-1.236278e-04	-1.678108e-06	1.364310e+01	1.500220e-21	
4.487486e-03	-5.228093e-02	9.500304e-01	0.000000e+00	0.000000e+00	2.424379e+00	1.000000e-10	9.697514e-01	1.020758e+00	-3.211377e+00	0.000000e+00	5.645064e-08	9.275161e-05	-1.692611e-04	-1.316436e-06	8.591668e+01	1.265227e-21	
6.075662e-03	-5.497537e-02	9.507836e-01	0.000000e+00	0.000000e+00	2.427176e+00	1.000000e-10	9.708706e-01	1.021127e+00	-3.092558e+00	0.000000e+00	5.646623e-08	9.379490e-05	-1.487900e-04	-1.239357e-06	8.806957e+01	1.268193e-21	
9.224216e-04	-4.952514e-02	9.611723e-01	2.577166e-02	-6.452871e-02	2.426360e+00	3.255061e-07	9.695393e-01	1.008705e+00	-3.233899e+00	6.083342e-02	5.593923e-08	0.000000e+00	0.000000e+00	0.000000e+00	0.000000e+00	1.027241e-07	
1.157133e-03	-5.208770e-02	9.632948e-01	3.885219e-02	-8.527071e-02	2.428038e+00	4.052136e-07	9.693922e-01	1.006330e+00	-3.249516e+00	8.195367e-02	5.583810e-08	0.000000e+00	0.000000e+00	0.000000e+00	0.000000e+00	1.906237e-07	
4.294775e-04	-4.791967e-02	9.601046e-01	2.387424e-02	-6.190450e-02	2.423720e+00	3.007461e-07	9.685708e-01	1.008818e+00	-3.336713e+00	5.814913e-02	5.594404e-08	0.000000e+00	0.000000e+00	0.000000e+00	0.000000e+00	8.013999e-08	
-1.017400e-03	-4.907179e-02	9.677783e-01	4.415904e-02	-1.191459e-01	2.432433e+00	4.119678e-07	9.696366e-01	1.001920e+00	-3.223564e+00	1.108595e-01	5.565005e-08	0.000000e+00	0.000000e+00	0.000000e+00	0.000000e+00	2.020423e-07	
1.078855e-03	-4.412468e-02	9.500305e-01	0.000000e+00	0.000000e+00	2.427725e+00	1.000000e-10	9.710899e-01	1.022167e+00	-3.069269e+00	0.000000e+00	5.651022e-08	6.296662e-05	-2.257083e-04	-1.777012e-06	6.423481e+01	1.261230e-21	
-9.450080e-04	-4.560379e-02	9.601412e-01	2.684260e-02	-8.438739e-02	2.421164e+00	3.204371e-07	9.668321e-01	1.006969e+00	-3.521308e+00	7.767828e-02	5.586532e-08	0.000000e+00	0.000000e+00	0.000000e+00	0.000000e+00	9.789718e-08	
1.005066e+00	-4.553307e-03	9.876780e-01	1.587418e-02	-3.645574e-03	2.483844e+00	1.032576e-05	9.934837e-01	1.005878e+00	-6.918062e-01	1.389633e-02	5.581886e-08	0.000000e+00	0.000000e+00	0.000000e+00	0.000000e+00	1.019792e-05	
1.001563e+00	-4.178643e-03	9.884026e-01	6.358186e-03	-2.745050e-03	2.483628e+00	5.734408e-06	9.934416e-01	1.005098e+00	-6.962762e-01	5.906711e-03	5.578562e-08	0.000000e+00	0.000000e+00	0.000000e+00	0.000000e+00	5.665970e-06	
1.000312e+00	-2.221144e-03	9.875669e-01	1.429080e-03	-3.295366e-03	2.482753e+00	1.457222e-06	9.930988e-01	1.005602e+00	-7.326780e-01	3.065350e-03	5.580708e-08	0.000000e+00	0.000000e+00	0.000000e+00	0.000000e+00	1.409682e-06	
1.000779e+00	-3.036700e-03	9.881674e-01	3.850411e-03	-3.484870e-03	2.483571e+00	2.803710e-06	9.934228e-01	1.005318e+00	-6.982734e-01	4.429901e-03	5.579501e-08	0.000000e+00	0.000000e+00	0.000000e+00	0.000000e+00	2.762459e-06	
1.001029e+00	-3.661358e-03	9.884101e-01	4.785539e-03	-2.711162e-03	2.483729e+00	4.181712e-06	9.934856e-01	1.005135e+00	-6.916116e-01	4.690964e-03	5.578719e-08	0.000000e+00	0.000000e+00	0.000000e+00	0.000000e+00	4.129612e-06	
9.996172e-01	-1.964303e-03	9.878887e-01	5.838397e-04	-5.065673e-05	2.483212e+00	6.696573e-07	9.932847e-01	1.005462e+00	-7.129387e-01	4.999969e-04	5.580114e-08	0.000000e+00	0.000000e+00	0.000000e+00	0.000000e+00	5.445753e-07	
9.990485e-01	-1.418680e-03	9.878850e-01	0.000000e+00	0.000000e+00	2.482967e+00	1.000000e-10	9.931866e-01	1.005367e+00	-7.233494e-01	0.000000e+00	5.579706e-08	5.448603e-06	2.397671e-06	-2.431383e-08	3.324200e+00	1.531851e-21	
1.002289e+00	-4.507450e-03	9.883870e-01	8.304067e-03	-3.120799e-03	2.483785e+00	7.214456e-06	9.934981e-01	1.005171e+00	-6.902837e-01	7.566025e-03	5.578873e-08	0.000000e+00	0.000000e+00	0.000000e+00	0.000000e+00	7.129453e-06	
1.002970e+00	-4.908479e-03	9.883817e-01	9.800146e-03	-2.727078e-03	2.483827e+00	9.075780e-06	9.935097e-01	1.005188e+00	-6.890452e-01	8.675917e-03	5.578947e-08	0.000000e+00	0.000000e+00	0.000000e+00	0.000000e+00	8.969563e-06	
1.001758e+00	-5.093791e-03	9.886282e-01	6.803663e-03	-9.227853e-04	2.483723e+00	8.351787e-06	9.934798e-01	1.004907e+00	-6.922250e-01	5.855191e-03	5.577749e-08	0.000000e+00	0.000000e+00	0.000000e+00	0.000000e+00	8.255901e-06	
1.004746e+00	-5.635400e-03	9.882869e-01	1.273396e-02	-1.629830e-03	2.483889e+00	1.373289e-05	9.935221e-01	1.005297e+00	-6.877336e-01	1.094958e-02	5.579411e-08	0.000000e+00	0.000000e+00	0.000000e+00	0.000000e+00	1.357170e-05	
1.003705e+00	-5.430800e-03	9.883698e-01	1.087153e-02	-1.908104e-03	2.483772e+00	1.159342e-05	9.934843e-01	1.005175e+00	-6.917461e-01	9.414012e-03	5.578888e-08	0.000000e+00	0.000000e+00	0.000000e+00	0.000000e+00	1.145811e-05	
1.006057e+00	-2.726278e-03	9.853586e-01	2.437254e-02	-4.621249e-03	2.484016e+00	4.576859e-06	9.934816e-01	1.008244e+00	-6.920323e-01	2.118992e-02	5.591960e-08	0.000000e+00	0.000000e+00	0.000000e+00	0.000000e+00	4.506773e-06	
1.005467e+00	3.486461e-04	9.855909e-01	3.805061e-02	-6.577491e-03	2.483948e+00	2.840942e-06	9.932765e-01	1.007798e+00	-7.138066e-01	3.298433e-02	5.590063e-08	0.000000e+00	0.000000e+00	0.000000e+00	0.000000e+00	2.792055e-06	
1.005747e+00	-1.185703e-03	9.840576e-01	3.078454e-02	-5.400882e-03	2.483964e+00	2.337346e-06	9.933870e-01	1.009481e+00	-7.020795e-01	2.671666e-02	5.597223e-08	0.000000e+00	0.000000e+00	0.000000e+00	0.000000e+00	2.288280e-06	
1.006170e+00	-3.095133e-04	9.849123e-01	3.493092e-02	-5.104737e-03	2.484007e+00	2.671343e-06	9.933499e-01	1.008567e+00	-7.060160e-01	3.016371e-02	5.593336e-08	0.000000e+00	0.000000e+00	0.000000e+00	0.000000e+00	2.622022e-06	
1.006346e+00	-1.770120e-03	9.842484e-01	2.840780e-02	-4.383265e-03	2.483995e+00	2.672260e-06	9.934302e-01	1.009329e+00	-6.974937e-01	2.456755e-02	5.596577e-08	0.000000e+00	0.000000e+00	0.000000e+00	0.000000e+00	2.621130e-06	
1.006764e+00	-3.592193e-03	9.864559e-01	2.147807e-02	-3.015431e-03	2.483965e+00	9.186815e-06	9.934908e-01	1.007131e+00	-6.910611e-01	1.851608e-02	5.587225e-08	0.000000e+00	0.000000e+00	0.000000e+00	0.000000e+00	9.061628e-06	
1.006283e+00	-4.665904e-03	9.874967e-01	1.756617e-02	-2.414320e-03	2.483885e+00	1.268418e-05	9.934905e-01	1.006070e+00	-6.910863e-01	1.512959e-02	5.582703e-08	0.000000e+00	0.000000e+00	0.000000e+00	0.000000e+00	1.252519e-05	
1.005803e+00	1.096396e-03	9.864609e-01	4.406674e-02	-6.907985e-03	2.484091e+00	3.105297e-06	9.932329e-01	1.006865e+00	-7.184339e-01	3.808493e-02	5.586090e-08	0.000000e+00	0.000000e+00	0.000000e+00	0.000000e+00	3.056620e-06	
1.005204e+00	1.852426e-03	9.869614e-01	5.157020e-02	-8.343861e-03	2.484160e+00	3.175172e-06	9.931110e-01	1.006231e+00	-7.313814e-01	4.459613e-02	5.583389e-08	0.000000e+00	0.000000e+00	0.000000e+00	0.000000e+00	3.127441e-06	
1.003496e+00	2.107399e-03	9.867295e-01	5.467128e-02	-1.164316e-02	2.483610e+00	3.067287e-06	9.928105e-01	1.006163e+00	-7.632803e-01	4.773037e-02	5.583099e-08	0.000000e+00	0.000000e+00	0.000000e+00	0.000000e+00	3.019798e-06	
1.004479e+00	2.519077e-03	9.873004e-01	6.061426e-02	-9.503840e-03	2.484338e+00	3.129596e-06	9.929725e-01	1.005745e+00	-7.460816e-01	5.237105e-02	5.581319e-08	0.000000e+00	0.000000e+00	0.000000e+00	0.000000e+00	3.083347e-06	
1.002067e+00	2.041100e-03	9.859725e-01	5.565335e-02	-1.651492e-02	2.482267e+00	2.956622e-06	9.922231e-01	1.006340e+00	-8.256487e-01	4.960395e-02	5.583852e-08	0.000000e+00	0.000000e+00	0.000000e+00	0.000000e+00	2.907834e-06	
1.002822e+00	2.591043e-03	9.868231e-01	6.404455e-02	-1.270914e-02	2.483483e+00	3.004695e-06	9.925292e-01	1.005782e+00	-7.931439e-01	5.575886e-02	5.581478e-08	0.000000e+00	0.000000e+00	0.000000e+00	0.000000e+00	2.958040e-06	
1.001634e+00	1.585477e-03	9.852575e-01	4.849658e-02	-2.028616e-02	2.481559e+00	2.843950e-06	9.920625e-01	1.006907e+00	-8.426884e-01	4.493835e-02	5.586269e-08	0.000000e+00	0.000000e+00	0.000000e+00	0.000000e+00	2.794098e-06	
1.001171e+00	1.348771e-03	9.844602e-01	4.621097e-02	-2.497362e-02	2.480607e+00	2.672745e-06	9.916821e-01	1.007336e+00	-8.830780e-01	4.493008e-02	5.588096e-08	0.000000e+00	0.000000e+00	0.000000e+00	0.000000e+00	2.622221e-06	
1.000841e+00	-1.914314e-04	9.841892e-01	4.288601e-02	-4.697950e-02	2.482943e+00	1.780251e-06	9.923550e-01	1.008297e+00	-8.116418e-01	5.439905e-02	5.592187e-08	0.000000e+00	0.000000e+00	0.000000e+00	0.000000e+00	1.731949e-06	
1.000590e+00	-3.539976e-04	9.839046e-01	3.048186e-02	-5.399226e-02	2.473789e+00	1.489207e-06	9.887343e-01	1.004909e+00	-1.196036e+00	5.312865e-02	5.577755e-08	0.000000e+00	0.000000e+00	0.000000e+00	0.000000e+00	1.436869e-06	