TITLE = "Visualization of the volumetric solution"
VARIABLES = "x""y""Conservative_1""Conservative_2""Conservative_3""Conservative_4""Pressure""Temperature""C<sub>p</sub>""Mach""<greek>m</greek>""C<sub>f</sub>_x""C<sub>f</sub>_y""h""y<sup>+</sup>"
ZONE NODES= 5233, ELEMENTS= 10216, DATAPACKING=POINT, ZONETYPE=FEQUADRILATERAL
1.002197e+00	-1.322934e-03	1.291006e-01	7.844393e-01	2.043538e+00	2.782227e+04	1.112148e+04	3.000992e+02	9.055073e-02	4.882266e-02	1.846386e-05	0.000000e+00	0.000000e+00	0.000000e+00	0.000000e+00	
1.002618e+00	-9.417048e-04	1.290566e-01	6.010220e-01	1.677711e+00	2.781177e+04	1.111978e+04	3.001555e+02	7.430478e-02	3.975886e-02	1.846652e-05	0.000000e+00	0.000000e+00	0.000000e+00	0.000000e+00	
1.002284e+00	-1.635493e-03	1.289449e-01	9.543012e-01	2.008351e+00	2.778889e+04	1.110789e+04	3.000942e+02	-3.936633e-02	4.965518e-02	1.846362e-05	0.000000e+00	0.000000e+00	0.000000e+00	0.000000e+00	
1.001798e+00	-1.558841e-03	1.289104e-01	9.097567e-01	2.597383e+00	2.778375e+04	1.110175e+04	3.000085e+02	-9.802682e-02	6.148377e-02	1.845956e-05	0.000000e+00	0.000000e+00	0.000000e+00	0.000000e+00	
1.002455e+00	-2.030318e-03	1.289514e-01	1.154550e+00	1.930259e+00	2.779106e+04	1.110858e+04	3.000977e+02	-3.277795e-02	5.022513e-02	1.846378e-05	0.000000e+00	0.000000e+00	0.000000e+00	0.000000e+00	
1.002661e+00	-2.529219e-03	1.289601e-01	1.455315e+00	1.860579e+00	2.779444e+04	1.110912e+04	3.000924e+02	-2.754307e-02	5.274408e-02	1.846353e-05	0.000000e+00	0.000000e+00	0.000000e+00	0.000000e+00	
1.002755e+00	-1.491134e-03	1.288979e-01	9.772788e-01	1.704496e+00	2.777813e+04	1.110526e+04	3.001326e+02	-6.445081e-02	4.388980e-02	1.846544e-05	0.000000e+00	0.000000e+00	0.000000e+00	0.000000e+00	
1.003181e+00	-1.083630e-03	1.289592e-01	8.360650e-01	1.537080e+00	2.779068e+04	1.111152e+04	3.001592e+02	-4.612616e-03	3.906596e-02	1.846669e-05	0.000000e+00	0.000000e+00	0.000000e+00	0.000000e+00	
1.003056e+00	-2.040733e-03	1.289618e-01	1.247461e+00	1.689078e+00	2.779317e+04	1.111043e+04	3.001236e+02	-1.506722e-02	4.688317e-02	1.846501e-05	0.000000e+00	0.000000e+00	0.000000e+00	0.000000e+00	
1.003139e+00	-6.853513e-04	1.289257e-01	4.756790e-01	1.501276e+00	2.778267e+04	1.110922e+04	3.001750e+02	-2.663729e-02	3.516892e-02	1.846744e-05	0.000000e+00	0.000000e+00	0.000000e+00	0.000000e+00	
1.002163e+00	-9.795514e-04	1.288521e-01	5.768157e-01	1.998303e+00	2.776881e+04	1.110081e+04	3.001190e+02	-1.069910e-01	4.647857e-02	1.846479e-05	0.000000e+00	0.000000e+00	0.000000e+00	0.000000e+00	
1.001764e+00	-1.179128e-03	1.287848e-01	6.828863e-01	2.661107e+00	2.775671e+04	1.109096e+04	3.000093e+02	-2.010725e-01	6.143698e-02	1.845960e-05	0.000000e+00	0.000000e+00	0.000000e+00	0.000000e+00	
1.002655e+00	-3.845660e-04	1.290655e-01	-2.766014e-01	1.412492e+00	2.781205e+04	1.112161e+04	3.001841e+02	9.173578e-02	3.210735e-02	1.846787e-05	0.000000e+00	0.000000e+00	0.000000e+00	0.000000e+00	
1.002153e+00	-6.395168e-04	1.290449e-01	-1.451820e-02	1.858868e+00	2.781025e+04	1.111874e+04	3.001547e+02	6.436517e-02	4.147625e-02	1.846648e-05	0.000000e+00	0.000000e+00	0.000000e+00	0.000000e+00	
1.001393e+00	-1.379689e-03	1.290312e-01	9.437469e-01	3.767827e+00	2.781702e+04	1.110342e+04	2.997730e+02	-8.201316e-02	8.672897e-02	1.844842e-05	0.000000e+00	0.000000e+00	0.000000e+00	0.000000e+00	
1.001929e+00	-1.979482e-03	1.288869e-01	1.137272e+00	2.378701e+00	2.777866e+04	1.110068e+04	3.000344e+02	-1.082594e-01	5.891142e-02	1.846079e-05	0.000000e+00	0.000000e+00	0.000000e+00	0.000000e+00	
1.001488e+00	-1.799252e-03	1.289740e-01	1.137603e+00	3.107763e+00	2.780106e+04	1.110344e+04	2.999063e+02	-8.183872e-02	7.391104e-02	1.845473e-05	0.000000e+00	0.000000e+00	0.000000e+00	0.000000e+00	
1.002094e+00	-2.417213e-03	1.288515e-01	1.448001e+00	2.164743e+00	2.777184e+04	1.109821e+04	3.000499e+02	-1.318557e-01	5.820628e-02	1.846152e-05	0.000000e+00	0.000000e+00	0.000000e+00	0.000000e+00	
1.002266e+00	-2.908512e-03	1.289065e-01	1.744324e+00	2.001569e+00	2.778495e+04	1.110304e+04	3.000527e+02	-8.563256e-02	5.931159e-02	1.846166e-05	0.000000e+00	0.000000e+00	0.000000e+00	0.000000e+00	
1.002882e+00	-3.052339e-03	1.289507e-01	1.781898e+00	1.792438e+00	2.779445e+04	1.110787e+04	3.000803e+02	-3.950928e-02	5.644051e-02	1.846296e-05	0.000000e+00	0.000000e+00	0.000000e+00	0.000000e+00	
1.003304e+00	-2.601752e-03	1.289230e-01	1.553671e+00	1.696690e+00	2.778680e+04	1.110651e+04	3.001079e+02	-5.251495e-02	5.138288e-02	1.846427e-05	0.000000e+00	0.000000e+00	0.000000e+00	0.000000e+00	
1.003362e+00	-1.587294e-03	1.290155e-01	1.085360e+00	1.533070e+00	2.780347e+04	1.111592e+04	3.001470e+02	3.737940e-02	4.192042e-02	1.846612e-05	0.000000e+00	0.000000e+00	0.000000e+00	0.000000e+00	
1.003721e+00	-8.160138e-04	1.290483e-01	6.441369e-01	1.439689e+00	2.780882e+04	1.111967e+04	3.001720e+02	7.322601e-02	3.518889e-02	1.846730e-05	0.000000e+00	0.000000e+00	0.000000e+00	0.000000e+00	
1.003710e+00	-2.107651e-03	1.289593e-01	1.374838e+00	1.575073e+00	2.779311e+04	1.111047e+04	3.001304e+02	-1.473438e-02	4.668053e-02	1.846533e-05	0.000000e+00	0.000000e+00	0.000000e+00	0.000000e+00	
1.003203e+00	-1.631341e-04	1.288540e-01	-1.498958e-01	1.292489e+00	2.776488e+04	1.110332e+04	3.001825e+02	-8.297123e-02	2.907291e-02	1.846780e-05	0.000000e+00	0.000000e+00	0.000000e+00	0.000000e+00	
1.002824e+00	1.910153e-04	1.291341e-01	-8.991629e-01	9.987195e-01	2.782317e+04	1.112647e+04	3.001558e+02	1.382008e-01	2.996317e-02	1.846653e-05	0.000000e+00	0.000000e+00	0.000000e+00	0.000000e+00	
1.001752e+00	-8.320389e-04	1.294415e-01	-1.342755e-01	2.506913e+00	2.789816e+04	1.114952e+04	3.000635e+02	3.584498e-01	5.585120e-02	1.846217e-05	0.000000e+00	0.000000e+00	0.000000e+00	0.000000e+00	
1.001386e+00	-1.017864e-03	1.292583e-01	6.312780e-02	3.922435e+00	2.786680e+04	1.112291e+04	2.997714e+02	1.041402e-01	8.743989e-02	1.844835e-05	0.000000e+00	0.000000e+00	0.000000e+00	0.000000e+00	
1.002374e+00	5.500012e-04	1.284859e-01	-3.901186e-01	1.003645e+00	2.768081e+04	1.107052e+04	3.001531e+02	-3.963918e-01	2.413009e-02	1.846641e-05	0.000000e+00	0.000000e+00	0.000000e+00	0.000000e+00	
1.002286e+00	6.158285e-05	1.287480e-01	-1.006977e+00	1.033565e+00	2.774228e+04	1.109368e+04	3.001688e+02	-1.751248e-01	3.226974e-02	1.846715e-05	0.000000e+00	0.000000e+00	0.000000e+00	0.000000e+00	
1.002192e+00	-3.309526e-04	1.286116e-01	-7.801845e-01	1.391504e+00	2.771590e+04	1.108240e+04	3.001817e+02	-2.828348e-01	3.571252e-02	1.846776e-05	0.000000e+00	0.000000e+00	0.000000e+00	0.000000e+00	
1.001755e+00	-4.669458e-04	1.293834e-01	-1.316571e+00	1.878066e+00	2.788552e+04	1.114608e+04	3.001054e+02	3.254983e-01	5.104449e-02	1.846415e-05	0.000000e+00	0.000000e+00	0.000000e+00	0.000000e+00	
1.001040e+00	-1.178420e-03	1.283798e-01	8.886092e-01	5.341319e+00	2.769086e+04	1.103067e+04	2.993197e+02	-7.771435e-01	1.216084e-01	1.842696e-05	0.000000e+00	0.000000e+00	0.000000e+00	0.000000e+00	
1.003551e+00	-3.248994e-03	1.289748e-01	1.835315e+00	1.678844e+00	2.780011e+04	1.111045e+04	3.000940e+02	-1.488095e-02	5.553340e-02	1.846361e-05	0.000000e+00	0.000000e+00	0.000000e+00	0.000000e+00	
1.001090e+00	-1.609864e-03	1.290543e-01	1.633019e+00	4.622707e+00	2.783155e+04	1.109537e+04	2.995019e+02	-1.589446e-01	1.094993e-01	1.843558e-05	0.000000e+00	0.000000e+00	0.000000e+00	0.000000e+00	
1.000724e+00	-1.413635e-03	1.279159e-01	2.571937e+00	6.602600e+00	2.761362e+04	1.096695e+04	2.986699e+02	-1.385936e+00	1.598904e-01	1.839616e-05	0.000000e+00	0.000000e+00	0.000000e+00	0.000000e+00	
1.001576e+00	-2.267293e-03	1.290838e-01	1.406976e+00	2.722114e+00	2.782419e+04	1.111513e+04	2.999668e+02	2.983619e-02	6.836971e-02	1.845759e-05	0.000000e+00	0.000000e+00	0.000000e+00	0.000000e+00	
1.001134e+00	-2.083912e-03	1.281646e-01	1.836614e+00	3.476237e+00	2.763238e+04	1.102883e+04	2.997724e+02	-7.946934e-01	8.838023e-02	1.844839e-05	0.000000e+00	0.000000e+00	0.000000e+00	0.000000e+00	
1.001706e+00	-2.786714e-03	1.289043e-01	1.816492e+00	2.322033e+00	2.778591e+04	1.110088e+04	2.999993e+02	-1.063106e-01	6.586738e-02	1.845913e-05	0.000000e+00	0.000000e+00	0.000000e+00	0.000000e+00	
1.001903e+00	-3.290688e-03	1.289344e-01	2.032487e+00	2.046418e+00	2.779299e+04	1.110429e+04	3.000215e+02	-7.370520e-02	6.442245e-02	1.846018e-05	0.000000e+00	0.000000e+00	0.000000e+00	0.000000e+00	
1.002489e+00	-3.478015e-03	1.289702e-01	2.032798e+00	1.833680e+00	2.780037e+04	1.110852e+04	3.000525e+02	-3.327525e-02	6.112780e-02	1.846165e-05	0.000000e+00	0.000000e+00	0.000000e+00	0.000000e+00	
1.003353e+00	-3.668040e-03	1.289696e-01	2.084496e+00	1.675590e+00	2.780078e+04	1.110922e+04	3.000728e+02	-2.661583e-02	5.971540e-02	1.846261e-05	0.000000e+00	0.000000e+00	0.000000e+00	0.000000e+00	
1.004020e+00	-2.725009e-03	1.289476e-01	1.664287e+00	1.595409e+00	2.779290e+04	1.110892e+04	3.001157e+02	-2.951849e-02	5.148166e-02	1.846464e-05	0.000000e+00	0.000000e+00	0.000000e+00	0.000000e+00	
1.003864e+00	-7.569212e-05	1.290321e-01	-1.053916e-01	1.335905e+00	2.780261e+04	1.111826e+04	3.001715e+02	5.973394e-02	2.990141e-02	1.846728e-05	0.000000e+00	0.000000e+00	0.000000e+00	0.000000e+00	
1.004046e+00	-1.501471e-03	1.288803e-01	1.142226e+00	1.481247e+00	2.777450e+04	1.110437e+04	3.001495e+02	-7.295835e-02	4.178819e-02	1.846624e-05	0.000000e+00	0.000000e+00	0.000000e+00	0.000000e+00	
1.004445e+00	-7.163462e-04	1.289406e-01	6.633837e-01	1.428811e+00	2.778538e+04	1.111030e+04	3.001695e+02	-1.628354e-02	3.517566e-02	1.846718e-05	0.000000e+00	0.000000e+00	0.000000e+00	0.000000e+00	
1.004463e+00	-2.115947e-03	1.289962e-01	1.449415e+00	1.521478e+00	2.780157e+04	1.111378e+04	3.001340e+02	1.694823e-02	4.690471e-02	1.846550e-05	0.000000e+00	0.000000e+00	0.000000e+00	0.000000e+00	
1.003405e+00	4.046105e-04	1.289254e-01	-7.332359e-01	1.134942e+00	2.777668e+04	1.110784e+04	3.001384e+02	-3.982508e-02	3.017658e-02	1.846571e-05	0.000000e+00	0.000000e+00	0.000000e+00	0.000000e+00	
1.002924e+00	7.572918e-04	1.290860e-01	-5.027864e-01	1.044561e+00	2.780758e+04	1.112095e+04	3.001187e+02	8.545545e-02	2.585885e-02	1.846478e-05	0.000000e+00	0.000000e+00	0.000000e+00	0.000000e+00	
1.004090e+00	6.083860e-04	1.289490e-01	-7.959671e-01	1.158962e+00	2.778109e+04	1.110937e+04	3.001248e+02	-2.518684e-02	3.139487e-02	1.846507e-05	0.000000e+00	0.000000e+00	0.000000e+00	0.000000e+00	
1.002451e+00	1.058535e-03	1.293285e-01	1.444730e+00	2.351564e+00	2.786635e+04	1.113476e+04	2.999279e+02	2.173793e-01	6.146715e-02	1.845575e-05	0.000000e+00	0.000000e+00	0.000000e+00	0.000000e+00	
1.001392e+00	-6.658300e-04	1.279547e-01	-1.113951e+00	2.771148e+00	2.758097e+04	1.101845e+04	2.999814e+02	-8.938939e-01	6.722545e-02	1.845828e-05	0.000000e+00	0.000000e+00	0.000000e+00	0.000000e+00	
1.001055e+00	-8.611154e-04	1.286245e-01	-1.679860e+00	4.898511e+00	2.774193e+04	1.105507e+04	2.994112e+02	-5.439692e-01	1.160649e-01	1.843129e-05	0.000000e+00	0.000000e+00	0.000000e+00	0.000000e+00	
1.001960e+00	8.014349e-04	1.296665e-01	2.071504e+00	3.309941e+00	2.795109e+04	1.115692e+04	2.997414e+02	4.291034e-01	8.676405e-02	1.844693e-05	0.000000e+00	0.000000e+00	0.000000e+00	0.000000e+00	
1.001906e+00	3.445007e-04	1.291168e-01	-2.340680e-01	1.547013e+00	2.782034e+04	1.112434e+04	3.001388e+02	1.178652e-01	3.489124e-02	1.846573e-05	0.000000e+00	0.000000e+00	0.000000e+00	0.000000e+00	
1.001827e+00	-6.744394e-05	1.296464e-01	-1.614133e+00	1.282763e+00	2.793968e+04	1.116932e+04	3.001209e+02	5.475362e-01	4.579133e-02	1.846488e-05	0.000000e+00	0.000000e+00	0.000000e+00	0.000000e+00	
1.001461e+00	-2.758892e-04	1.280831e-01	-1.782196e+00	1.910169e+00	2.760622e+04	1.103183e+04	3.000448e+02	-7.660073e-01	5.873765e-02	1.846128e-05	0.000000e+00	0.000000e+00	0.000000e+00	0.000000e+00	
1.000704e+00	-1.006136e-03	1.295619e-01	-1.327311e+00	7.533223e+00	2.797387e+04	1.109923e+04	2.984323e+02	-1.220987e-01	1.704788e-01	1.838489e-05	0.000000e+00	0.000000e+00	0.000000e+00	0.000000e+00	
1.000347e+00	-1.281545e-03	1.282495e-01	2.671071e+00	9.951033e+00	2.774364e+04	1.093191e+04	2.969413e+02	-1.720709e+00	2.325605e-01	1.831407e-05	0.000000e+00	0.000000e+00	0.000000e+00	0.000000e+00	
3.124498e-03	-6.010902e-02	1.258849e-01	2.466028e+00	-1.029104e+01	2.729093e+04	1.073845e+04	2.971654e+02	-3.569000e+00	2.432550e-01	1.832473e-05	0.000000e+00	0.000000e+00	0.000000e+00	0.000000e+00	
2.537646e-03	-5.745403e-02	1.258939e-01	2.169240e+00	-1.032500e+01	2.729243e+04	1.074014e+04	2.971910e+02	-3.552883e+00	2.424923e-01	1.832594e-05	0.000000e+00	0.000000e+00	0.000000e+00	0.000000e+00	
2.003081e-03	-5.479429e-02	1.260917e-01	1.863071e+00	-1.027088e+01	2.733295e+04	1.076035e+04	2.972831e+02	-3.359776e+00	2.395063e-01	1.833032e-05	0.000000e+00	0.000000e+00	0.000000e+00	0.000000e+00	
1.004394e+00	-3.726569e-03	1.289688e-01	2.052054e+00	1.578386e+00	2.780067e+04	1.110988e+04	3.000924e+02	-2.037099e-02	5.780277e-02	1.846353e-05	0.000000e+00	0.000000e+00	0.000000e+00	0.000000e+00	
1.000725e+00	-1.904866e-03	1.293652e-01	2.532740e+00	4.860154e+00	2.790591e+04	1.111593e+04	2.993358e+02	3.745501e-02	1.221447e-01	1.842772e-05	0.000000e+00	0.000000e+00	0.000000e+00	0.000000e+00	
1.000384e+00	-1.649528e-03	1.272936e-01	5.098943e+00	6.048830e+00	2.749432e+04	1.089939e+04	2.982813e+02	-2.031375e+00	1.795046e-01	1.837772e-05	0.000000e+00	0.000000e+00	0.000000e+00	0.000000e+00	
1.001181e+00	-2.552557e-03	1.288404e-01	2.039380e+00	2.925979e+00	2.777647e+04	1.109084e+04	2.998767e+02	-2.022170e-01	7.974041e-02	1.845333e-05	0.000000e+00	0.000000e+00	0.000000e+00	0.000000e+00	
1.000741e+00	-2.364705e-03	1.292033e-01	2.254330e+00	3.512586e+00	2.785929e+04	1.111675e+04	2.997330e+02	4.531463e-02	9.307600e-02	1.844653e-05	0.000000e+00	0.000000e+00	0.000000e+00	0.000000e+00	
1.001320e+00	-3.200482e-03	1.288819e-01	2.211177e+00	2.378860e+00	2.778423e+04	1.109732e+04	2.999554e+02	-1.403124e-01	7.258080e-02	1.845705e-05	0.000000e+00	0.000000e+00	0.000000e+00	0.000000e+00	
1.001583e+00	-3.738879e-03	1.288433e-01	2.275978e+00	2.078579e+00	2.777545e+04	1.109543e+04	2.999942e+02	-1.583604e-01	6.889818e-02	1.845889e-05	0.000000e+00	0.000000e+00	0.000000e+00	0.000000e+00	
1.000044e+00	-1.491518e-03	1.294148e-01	6.646158e+00	5.692555e+00	2.796355e+04	1.106708e+04	2.979061e+02	-4.292822e-01	1.954230e-01	1.835992e-05	0.000000e+00	0.000000e+00	0.000000e+00	0.000000e+00	
9.997621e-01	-1.104659e-03	1.309509e-01	7.442492e+00	2.366553e+00	2.827461e+04	1.121669e+04	2.983917e+02	1.000199e+00	1.722198e-01	1.838296e-05	0.000000e+00	0.000000e+00	0.000000e+00	0.000000e+00	
1.002205e+00	-3.840408e-03	1.289271e-01	2.263690e+00	1.894654e+00	2.779299e+04	1.110368e+04	3.000220e+02	-7.956677e-02	6.593854e-02	1.846020e-05	0.000000e+00	0.000000e+00	0.000000e+00	0.000000e+00	
1.002857e+00	-4.176001e-03	1.289287e-01	2.314569e+00	1.722758e+00	2.779372e+04	1.110457e+04	3.000424e+02	-7.102085e-02	6.444743e-02	1.846117e-05	0.000000e+00	0.000000e+00	0.000000e+00	0.000000e+00	
1.003878e+00	-4.468859e-03	1.289686e-01	2.401728e+00	1.594064e+00	2.780362e+04	1.110856e+04	3.000574e+02	-3.290053e-02	6.436477e-02	1.846188e-05	0.000000e+00	0.000000e+00	0.000000e+00	0.000000e+00	
1.004957e+00	-2.957491e-03	1.289759e-01	1.767782e+00	1.516320e+00	2.779976e+04	1.111149e+04	3.001195e+02	-4.907329e-03	5.199558e-02	1.846481e-05	0.000000e+00	0.000000e+00	0.000000e+00	0.000000e+00	
1.004635e+00	6.222697e-05	1.289161e-01	-1.086608e-01	1.322430e+00	2.777721e+04	1.110815e+04	3.001684e+02	-3.682874e-02	2.963435e-02	1.846713e-05	0.000000e+00	0.000000e+00	0.000000e+00	0.000000e+00	
1.004847e+00	-1.415241e-03	1.290179e-01	1.143604e+00	1.473841e+00	2.780427e+04	1.111631e+04	3.001519e+02	4.114112e-02	4.163155e-02	1.846635e-05	0.000000e+00	0.000000e+00	0.000000e+00	0.000000e+00	
1.005268e+00	-5.933545e-04	1.289545e-01	6.096697e-01	1.416536e+00	2.778816e+04	1.111158e+04	3.001716e+02	-4.126936e-03	3.443188e-02	1.846728e-05	0.000000e+00	0.000000e+00	0.000000e+00	0.000000e+00	
1.005371e+00	-2.143643e-03	1.289468e-01	1.491576e+00	1.465206e+00	2.779110e+04	1.110966e+04	3.001376e+02	-2.243559e-02	4.668763e-02	1.846567e-05	0.000000e+00	0.000000e+00	0.000000e+00	0.000000e+00	
1.005550e+00	-3.775191e-03	1.289659e-01	2.079349e+00	1.485485e+00	2.780050e+04	1.111007e+04	3.001045e+02	-1.847477e-02	5.705695e-02	1.846411e-05	0.000000e+00	0.000000e+00	0.000000e+00	0.000000e+00	
1.004912e+00	8.932597e-04	1.288809e-01	-6.829781e-01	1.092652e+00	2.776601e+04	1.110383e+04	3.001335e+02	-7.814497e-02	2.878755e-02	1.846548e-05	0.000000e+00	0.000000e+00	0.000000e+00	0.000000e+00	
1.003530e+00	1.046853e-03	1.286624e-01	-4.750022e-01	1.235690e+00	2.771525e+04	1.108338e+04	3.000895e+02	-2.735507e-01	2.962854e-02	1.846340e-05	0.000000e+00	0.000000e+00	0.000000e+00	0.000000e+00	
1.002981e+00	1.395181e-03	1.290634e-01	8.958917e-01	1.875988e+00	2.780236e+04	1.111425e+04	2.999905e+02	2.140346e-02	4.639108e-02	1.845871e-05	0.000000e+00	0.000000e+00	0.000000e+00	0.000000e+00	
1.004302e+00	1.517072e-03	1.291267e-01	-3.715075e-01	1.221683e+00	2.781496e+04	1.112346e+04	3.000918e+02	1.094005e-01	2.847555e-02	1.846351e-05	0.000000e+00	0.000000e+00	0.000000e+00	0.000000e+00	
1.002700e+00	1.710377e-03	1.289415e-01	3.993095e+00	4.044771e+00	2.781151e+04	1.107449e+04	2.991999e+02	-3.584005e-01	1.271195e-01	1.842128e-05	0.000000e+00	0.000000e+00	0.000000e+00	0.000000e+00	
1.002019e+00	1.335640e-03	1.298636e-01	4.861320e+00	5.687255e+00	2.804052e+04	1.113000e+04	2.985643e+02	1.718807e-01	1.663224e-01	1.839115e-05	0.000000e+00	0.000000e+00	0.000000e+00	0.000000e+00	
1.001126e+00	-4.613085e-04	1.319943e-01	-3.902447e+00	3.006968e+00	2.846646e+04	1.134981e+04	2.995460e+02	2.271975e+00	1.075740e-01	1.843767e-05	0.000000e+00	0.000000e+00	0.000000e+00	0.000000e+00	
1.000806e+00	-6.225118e-04	1.254388e-01	-3.845576e+00	5.388761e+00	2.707382e+04	1.075965e+04	2.988110e+02	-3.366501e+00	1.522975e-01	1.840285e-05	0.000000e+00	0.000000e+00	0.000000e+00	0.000000e+00	
1.001580e+00	1.049293e-03	1.294480e-01	5.870523e+00	7.404292e+00	2.799135e+04	1.105859e+04	2.976012e+02	-5.103571e-01	2.110724e-01	1.834544e-05	0.000000e+00	0.000000e+00	0.000000e+00	0.000000e+00	
1.001521e+00	5.947356e-04	1.290663e-01	3.818782e+00	4.933780e+00	2.785001e+04	1.107968e+04	2.990507e+02	-3.088145e-01	1.394382e-01	1.841421e-05	0.000000e+00	0.000000e+00	0.000000e+00	0.000000e+00	
1.001494e+00	1.398691e-04	1.279256e-01	2.348380e-01	1.995685e+00	2.756618e+04	1.102016e+04	3.000964e+02	-8.775272e-01	4.523156e-02	1.846373e-05	0.000000e+00	0.000000e+00	0.000000e+00	0.000000e+00	
1.001156e+00	-5.229699e-05	1.287484e-01	-4.407010e-01	2.701056e+00	2.774598e+04	1.108676e+04	2.999804e+02	-2.412548e-01	6.122113e-02	1.845823e-05	0.000000e+00	0.000000e+00	0.000000e+00	0.000000e+00	
1.000464e+00	-6.948412e-04	1.335087e-01	-9.781002e+00	6.145451e+00	2.890113e+04	1.136056e+04	2.964290e+02	2.374749e+00	2.506775e-01	1.828970e-05	0.000000e+00	0.000000e+00	0.000000e+00	0.000000e+00	
1.000000e+00	-1.000000e-03	1.131134e-01	-1.397340e+00	6.184775e+00	2.441380e+04	9.694435e+03	2.985649e+02	-1.354374e+01	1.618275e-01	1.839118e-05	0.000000e+00	0.000000e+00	0.000000e+00	0.000000e+00	
4.487486e-03	-6.554139e-02	1.258622e-01	2.800295e+00	-1.035266e+01	2.728921e+04	1.073291e+04	2.970658e+02	-3.621938e+00	2.466122e-01	1.831999e-05	0.000000e+00	0.000000e+00	0.000000e+00	0.000000e+00	
6.075662e-03	-7.100754e-02	1.256449e-01	3.244902e+00	-1.043263e+01	2.724712e+04	1.070884e+04	2.969120e+02	-3.851963e+00	2.517319e-01	1.831268e-05	0.000000e+00	0.000000e+00	0.000000e+00	0.000000e+00	
-4.669334e-04	-5.924552e-02	1.261331e-01	2.330597e+00	-1.012508e+01	2.734212e+04	1.076568e+04	2.973327e+02	-3.308871e+00	2.382922e-01	1.833268e-05	0.000000e+00	0.000000e+00	0.000000e+00	0.000000e+00	
-7.744754e-04	-6.380306e-02	1.261220e-01	2.681267e+00	-1.008452e+01	2.734091e+04	1.076369e+04	2.973040e+02	-3.327845e+00	2.393577e-01	1.833131e-05	0.000000e+00	0.000000e+00	0.000000e+00	0.000000e+00	
-8.961933e-04	-5.634288e-02	1.261878e-01	2.050998e+00	-1.010627e+01	2.735228e+04	1.077237e+04	2.973884e+02	-3.244996e+00	2.363888e-01	1.833532e-05	0.000000e+00	0.000000e+00	0.000000e+00	0.000000e+00	
-3.460224e-03	-5.805601e-02	1.263219e-01	2.204574e+00	-9.975130e+00	2.738016e+04	1.078683e+04	2.974716e+02	-3.106820e+00	2.338966e-01	1.833928e-05	0.000000e+00	0.000000e+00	0.000000e+00	0.000000e+00	
1.078855e-03	-4.933313e-02	1.261384e-01	1.492998e+00	-1.017205e+01	2.734007e+04	1.076843e+04	2.973963e+02	-3.282558e+00	2.357615e-01	1.833570e-05	0.000000e+00	0.000000e+00	0.000000e+00	0.000000e+00	
-2.631105e-03	-5.201257e-02	1.263523e-01	1.721255e+00	-9.964929e+00	2.738392e+04	1.079170e+04	2.975342e+02	-3.060278e+00	2.314503e-01	1.834225e-05	0.000000e+00	0.000000e+00	0.000000e+00	0.000000e+00	
1.004989e+00	-4.650434e-03	1.289904e-01	2.391899e+00	1.490814e+00	2.780864e+04	1.111114e+04	3.000762e+02	-8.290943e-03	6.292012e-02	1.846277e-05	0.000000e+00	0.000000e+00	0.000000e+00	0.000000e+00	
1.001508e+00	-4.202119e-03	1.289250e-01	2.521159e+00	1.984686e+00	2.779518e+04	1.110210e+04	2.999841e+02	-9.464404e-02	7.167747e-02	1.845841e-05	0.000000e+00	0.000000e+00	0.000000e+00	0.000000e+00	
1.000295e+00	-2.228401e-03	1.280274e-01	3.464450e+00	3.991013e+00	2.761725e+04	1.100327e+04	2.993982e+02	-1.038914e+00	1.190046e-01	1.843067e-05	0.000000e+00	0.000000e+00	0.000000e+00	0.000000e+00	
1.000747e+00	-3.050276e-03	1.289596e-01	2.588675e+00	2.894447e+00	2.780636e+04	1.109916e+04	2.998242e+02	-1.227720e-01	8.674638e-02	1.845084e-05	0.000000e+00	0.000000e+00	0.000000e+00	0.000000e+00	
1.000986e+00	-3.677177e-03	1.288527e-01	2.478497e+00	2.253219e+00	2.778026e+04	1.109469e+04	2.999521e+02	-1.654624e-01	7.487329e-02	1.845690e-05	0.000000e+00	0.000000e+00	0.000000e+00	0.000000e+00	
9.996070e-01	-1.963895e-03	1.271285e-01	4.523574e+00	2.772252e+00	2.742333e+04	1.092505e+04	2.993716e+02	-1.786235e+00	1.203171e-01	1.842942e-05	0.000000e+00	0.000000e+00	0.000000e+00	0.000000e+00	
9.990485e-01	-1.418524e-03	1.277137e-01	4.796234e+00	2.339500e+00	2.754913e+04	1.097506e+04	2.993642e+02	-1.308432e+00	1.204653e-01	1.842906e-05	0.000000e+00	0.000000e+00	0.000000e+00	0.000000e+00	
1.002224e+00	-4.543671e-03	1.289903e-01	2.506229e+00	1.771267e+00	2.780880e+04	1.110892e+04	3.000165e+02	-2.952062e-02	6.851951e-02	1.845994e-05	0.000000e+00	0.000000e+00	0.000000e+00	0.000000e+00	
1.002893e+00	-4.956848e-03	1.289797e-01	2.540636e+00	1.662583e+00	2.780712e+04	1.110855e+04	3.000313e+02	-3.300774e-02	6.779363e-02	1.846064e-05	0.000000e+00	0.000000e+00	0.000000e+00	0.000000e+00	
1.001684e+00	-5.116486e-03	1.288402e-01	2.716652e+00	1.815102e+00	2.777865e+04	1.109489e+04	2.999867e+02	-1.635351e-01	7.303459e-02	1.845853e-05	0.000000e+00	0.000000e+00	0.000000e+00	0.000000e+00	
1.004645e+00	-5.719274e-03	1.289958e-01	2.661555e+00	1.476743e+00	2.781242e+04	1.111061e+04	3.000491e+02	-1.339150e-02	6.795066e-02	1.846149e-05	0.000000e+00	0.000000e+00	0.000000e+00	0.000000e+00	
1.003614e+00	-5.492239e-03	1.289901e-01	2.677029e+00	1.569192e+00	2.781124e+04	1.110957e+04	3.000343e+02	-2.331506e-02	6.927816e-02	1.846079e-05	0.000000e+00	0.000000e+00	0.000000e+00	0.000000e+00	
1.006022e+00	-2.854291e-03	1.289775e-01	1.764508e+00	1.446744e+00	2.780005e+04	1.111195e+04	3.001280e+02	-5.817795e-04	5.094003e-02	1.846522e-05	0.000000e+00	0.000000e+00	0.000000e+00	0.000000e+00	
1.005512e+00	2.311857e-04	1.290235e-01	-6.971587e-02	1.299683e+00	2.780027e+04	1.111748e+04	3.001705e+02	5.231640e-02	2.904423e-02	1.846723e-05	0.000000e+00	0.000000e+00	0.000000e+00	0.000000e+00	
1.005751e+00	-1.309339e-03	1.289579e-01	1.102046e+00	1.433481e+00	2.779106e+04	1.111136e+04	3.001575e+02	-6.230713e-03	4.037018e-02	1.846662e-05	0.000000e+00	0.000000e+00	0.000000e+00	0.000000e+00	
1.006198e+00	-4.451695e-04	1.289805e-01	6.000431e-01	1.384617e+00	2.779361e+04	1.111391e+04	3.001743e+02	1.821197e-02	3.368548e-02	1.846741e-05	0.000000e+00	0.000000e+00	0.000000e+00	0.000000e+00	
1.006334e+00	-1.907944e-03	1.289990e-01	1.427323e+00	1.416843e+00	2.780185e+04	1.111447e+04	3.001460e+02	2.351268e-02	4.488914e-02	1.846607e-05	0.000000e+00	0.000000e+00	0.000000e+00	0.000000e+00	
1.006706e+00	-3.734705e-03	1.289826e-01	2.038233e+00	1.405959e+00	2.780370e+04	1.111197e+04	3.001168e+02	-3.217279e-04	5.527700e-02	1.846469e-05	0.000000e+00	0.000000e+00	0.000000e+00	0.000000e+00	
1.006199e+00	-4.791725e-03	1.290080e-01	2.366204e+00	1.408768e+00	2.781245e+04	1.111322e+04	3.000916e+02	1.160187e-02	6.146728e-02	1.846349e-05	0.000000e+00	0.000000e+00	0.000000e+00	0.000000e+00	
1.005870e+00	9.699408e-04	1.289623e-01	-5.443995e-01	1.096952e+00	2.778374e+04	1.111117e+04	3.001424e+02	-7.978970e-03	2.734156e-02	1.846590e-05	0.000000e+00	0.000000e+00	0.000000e+00	0.000000e+00	
1.005291e+00	1.743014e-03	1.288807e-01	-2.746013e-01	1.045198e+00	2.776181e+04	1.110291e+04	3.001093e+02	-8.688214e-02	2.414438e-02	1.846433e-05	0.000000e+00	0.000000e+00	0.000000e+00	0.000000e+00	
1.003584e+00	2.045658e-03	1.286721e-01	2.384711e+00	2.507510e+00	2.772894e+04	1.107297e+04	2.997850e+02	-3.730139e-01	7.748002e-02	1.844899e-05	0.000000e+00	0.000000e+00	0.000000e+00	0.000000e+00	
1.004584e+00	2.431047e-03	1.289556e-01	1.985601e+00	1.992759e+00	2.778525e+04	1.110183e+04	2.999057e+02	-9.727524e-02	6.283601e-02	1.845470e-05	0.000000e+00	0.000000e+00	0.000000e+00	0.000000e+00	
1.002144e+00	2.018146e-03	1.305271e-01	7.172334e+00	7.645091e+00	2.825123e+04	1.113212e+04	2.971031e+02	1.921164e-01	2.324210e-01	1.832177e-05	0.000000e+00	0.000000e+00	0.000000e+00	0.000000e+00	
1.002921e+00	2.549932e-03	1.307772e-01	6.767170e+00	6.406665e+00	2.827880e+04	1.117871e+04	2.977764e+02	6.373296e-01	2.059842e-01	1.835376e-05	0.000000e+00	0.000000e+00	0.000000e+00	0.000000e+00	
1.001695e+00	1.571389e-03	1.318096e-01	7.268565e+00	8.997333e+00	2.855551e+04	1.121921e+04	2.965143e+02	1.024222e+00	2.542047e-01	1.829376e-05	0.000000e+00	0.000000e+00	0.000000e+00	0.000000e+00	
1.001221e+00	1.344769e-03	1.312624e-01	7.659107e+00	1.024125e+01	2.847282e+04	1.113994e+04	2.956465e+02	2.668831e-01	2.826462e-01	1.825244e-05	0.000000e+00	0.000000e+00	0.000000e+00	0.000000e+00	
1.000851e+00	-2.021139e-04	1.250437e-01	-2.147715e-01	2.807784e+00	2.694600e+04	1.076572e+04	2.999243e+02	-3.308509e+00	6.486556e-02	1.845558e-05	0.000000e+00	0.000000e+00	0.000000e+00	0.000000e+00	
1.000595e+00	-3.621733e-04	1.262809e-01	-2.688983e+00	4.152029e+00	2.722289e+04	1.085040e+04	2.993219e+02	-2.499441e+00	1.129435e-01	1.842706e-05	0.000000e+00	0.000000e+00	0.000000e+00	0.000000e+00	
1.001139e+00	8.626098e-04	1.326734e-01	6.642590e+00	9.905315e+00	2.874553e+04	1.128379e+04	2.962793e+02	1.641245e+00	2.605111e-01	1.828258e-05	0.000000e+00	0.000000e+00	0.000000e+00	0.000000e+00	
1.001147e+00	3.287687e-04	1.326420e-01	4.395876e+00	7.171138e+00	2.865314e+04	1.135458e+04	2.982088e+02	2.317594e+00	1.831766e-01	1.837429e-05	0.000000e+00	0.000000e+00	0.000000e+00	0.000000e+00	
1.000848e+00	1.493445e-04	1.303592e-01	7.544565e+00	8.853044e+00	2.823047e+04	1.108461e+04	2.962164e+02	-2.617237e-01	2.586120e-01	1.827958e-05	0.000000e+00	0.000000e+00	0.000000e+00	0.000000e+00	
1.000366e+00	-3.393385e-04	1.242519e-01	4.585860e+00	1.624664e+01	2.707842e+04	1.037265e+04	2.908151e+02	-7.063965e+00	3.974197e-01	1.802128e-05	0.000000e+00	0.000000e+00	0.000000e+00	0.000000e+00	
1.000000e+00	0.000000e+00	2.416715e-01	1.931462e+01	1.026571e+02	5.847461e+04	1.435979e+04	2.069917e+02	3.102994e+01	1.498622e+00	1.367954e-05	0.000000e+00	0.000000e+00	0.000000e+00	0.000000e+00	
7.692865e-05	-6.974892e-02	1.260217e-01	3.104630e+00	-1.011700e+01	2.732268e+04	1.075134e+04	2.971992e+02	-3.445899e+00	2.429832e-01	1.832633e-05	0.000000e+00	0.000000e+00	0.000000e+00	0.000000e+00	
7.917903e-03	-7.658148e-02	1.255145e-01	3.685413e+00	-1.048806e+01	2.722351e+04	1.069248e+04	2.967666e+02	-4.008194e+00	2.564642e-01	1.830576e-05	0.000000e+00	0.000000e+00	0.000000e+00	0.000000e+00	
1.006240e-02	-8.234849e-02	1.253500e-01	4.149019e+00	-1.053547e+01	2.719305e+04	1.067265e+04	2.966051e+02	-4.197657e+00	2.616371e-01	1.829808e-05	0.000000e+00	0.000000e+00	0.000000e+00	0.000000e+00	
1.251909e-02	-8.826510e-02	1.251784e-01	4.631811e+00	-1.056729e+01	2.716142e+04	1.065188e+04	2.964334e+02	-4.396173e+00	2.670435e-01	1.828991e-05	0.000000e+00	0.000000e+00	0.000000e+00	0.000000e+00	
1.529738e-02	-9.429017e-02	1.249961e-01	5.139038e+00	-1.057057e+01	2.712763e+04	1.063001e+04	2.962563e+02	-4.605070e+00	2.725155e-01	1.828148e-05	0.000000e+00	0.000000e+00	0.000000e+00	0.000000e+00	
1.843145e-02	-1.004231e-01	1.248138e-01	5.667247e+00	-1.053243e+01	2.709374e+04	1.060827e+04	2.960823e+02	-4.812756e+00	2.777960e-01	1.827320e-05	0.000000e+00	0.000000e+00	0.000000e+00	0.000000e+00	
2.196161e-02	-1.066710e-01	1.246404e-01	6.201479e+00	-1.044946e+01	2.706141e+04	1.058764e+04	2.959177e+02	-5.009874e+00	2.826983e-01	1.826536e-05	0.000000e+00	0.000000e+00	0.000000e+00	0.000000e+00	
2.590787e-02	-1.130156e-01	1.244801e-01	6.736695e+00	-1.033377e+01	2.703184e+04	1.056825e+04	2.957558e+02	-5.195186e+00	2.874411e-01	1.825764e-05	0.000000e+00	0.000000e+00	0.000000e+00	0.000000e+00	
3.032086e-02	-1.194881e-01	1.243166e-01	7.278578e+00	-1.018658e+01	2.700166e+04	1.054850e+04	2.955913e+02	-5.383891e+00	2.921943e-01	1.824980e-05	0.000000e+00	0.000000e+00	0.000000e+00	0.000000e+00	
3.519676e-02	-1.260099e-01	1.241481e-01	7.831224e+00	-9.993032e+00	2.697026e+04	1.052843e+04	2.954297e+02	-5.575569e+00	2.967915e-01	1.824210e-05	0.000000e+00	0.000000e+00	0.000000e+00	0.000000e+00	
4.055945e-02	-1.325458e-01	1.239927e-01	8.383912e+00	-9.745837e+00	2.694129e+04	1.050993e+04	2.952802e+02	-5.752320e+00	3.009794e-01	1.823497e-05	0.000000e+00	0.000000e+00	0.000000e+00	0.000000e+00	
4.640551e-02	-1.390330e-01	1.238553e-01	8.924503e+00	-9.445506e+00	2.691562e+04	1.049357e+04	2.951475e+02	-5.908687e+00	3.046395e-01	1.822864e-05	0.000000e+00	0.000000e+00	0.000000e+00	0.000000e+00	
5.272092e-02	-1.454106e-01	1.237394e-01	9.440562e+00	-9.091595e+00	2.689380e+04	1.047987e+04	2.950383e+02	-6.039546e+00	3.076040e-01	1.822344e-05	0.000000e+00	0.000000e+00	0.000000e+00	0.000000e+00	