TITLE = "Visualization of the volumetric solution"
VARIABLES = "x""y""Conservative_1""Conservative_2""Conservative_3""Conservative_4""Pressure""Temperature""C<sub>p</sub>""Mach""<greek>m</greek>""C<sub>f</sub>_x""C<sub>f</sub>_y""h""y<sup>+</sup>"
ZONE NODES= 5233, ELEMENTS= 10216, DATAPACKING=POINT, ZONETYPE=FEQUADRILATERAL
1.002197e+00	-1.303962e-03	1.291002e-01	5.956923e-01	1.962912e+00	2.781856e+04	1.112091e+04	3.000845e+02	8.501617e-02	4.575450e-02	1.846316e-05	0.000000e+00	0.000000e+00	0.000000e+00	0.000000e+00	
1.002614e+00	-9.191419e-04	1.290580e-01	3.888152e-01	1.630460e+00	2.780774e+04	1.111874e+04	3.001243e+02	6.435208e-02	3.739696e-02	1.846504e-05	0.000000e+00	0.000000e+00	0.000000e+00	0.000000e+00	
1.002286e+00	-1.615392e-03	1.289484e-01	7.719222e-01	1.929208e+00	2.778606e+04	1.110773e+04	3.000818e+02	-4.089305e-02	4.640257e-02	1.846303e-05	0.000000e+00	0.000000e+00	0.000000e+00	0.000000e+00	
1.001801e+00	-1.543264e-03	1.289079e-01	7.225226e-01	2.472217e+00	2.777982e+04	1.110164e+04	3.000115e+02	-9.908155e-02	5.754229e-02	1.845971e-05	0.000000e+00	0.000000e+00	0.000000e+00	0.000000e+00	
1.002461e+00	-2.008364e-03	1.289588e-01	9.628350e-01	1.860198e+00	2.778890e+04	1.110876e+04	3.000853e+02	-3.106780e-02	4.677144e-02	1.846320e-05	0.000000e+00	0.000000e+00	0.000000e+00	0.000000e+00	
1.002671e+00	-2.505206e-03	1.289605e-01	1.249242e+00	1.797643e+00	2.779072e+04	1.110886e+04	3.000841e+02	-3.010551e-02	4.888065e-02	1.846314e-05	0.000000e+00	0.000000e+00	0.000000e+00	0.000000e+00	
1.002756e+00	-1.466610e-03	1.289011e-01	7.865272e-01	1.661492e+00	2.777471e+04	1.110464e+04	3.001084e+02	-7.036458e-02	4.106398e-02	1.846429e-05	0.000000e+00	0.000000e+00	0.000000e+00	0.000000e+00	
1.003177e+00	-1.055089e-03	1.289588e-01	6.305854e-01	1.520655e+00	2.778592e+04	1.111016e+04	3.001234e+02	-1.760502e-02	3.675677e-02	1.846500e-05	0.000000e+00	0.000000e+00	0.000000e+00	0.000000e+00	
1.003061e+00	-2.012884e-03	1.289615e-01	1.046092e+00	1.649931e+00	2.778886e+04	1.110963e+04	3.001025e+02	-2.275500e-02	4.362077e-02	1.846401e-05	0.000000e+00	0.000000e+00	0.000000e+00	0.000000e+00	
1.003131e+00	-6.577362e-04	1.289320e-01	2.550493e-01	1.478254e+00	2.777913e+04	1.110816e+04	3.001317e+02	-3.672938e-02	3.350064e-02	1.846539e-05	0.000000e+00	0.000000e+00	0.000000e+00	0.000000e+00	
1.002160e+00	-9.613634e-04	1.288440e-01	3.638287e-01	1.909454e+00	2.776339e+04	1.109949e+04	3.001022e+02	-1.195926e-01	4.344157e-02	1.846400e-05	0.000000e+00	0.000000e+00	0.000000e+00	0.000000e+00	
1.001764e+00	-1.164307e-03	1.287904e-01	4.755415e-01	2.520341e+00	2.775455e+04	1.109161e+04	3.000139e+02	-1.949163e-01	5.735252e-02	1.845982e-05	0.000000e+00	0.000000e+00	0.000000e+00	0.000000e+00	
1.002644e+00	-3.624895e-04	1.290673e-01	-5.044210e-01	1.349257e+00	2.780755e+04	1.111980e+04	3.001313e+02	7.449612e-02	3.213525e-02	1.846538e-05	0.000000e+00	0.000000e+00	0.000000e+00	0.000000e+00	
1.002147e+00	-6.219994e-04	1.290344e-01	-2.553761e-01	1.758990e+00	2.780373e+04	1.111659e+04	3.001212e+02	4.381989e-02	3.966343e-02	1.846490e-05	0.000000e+00	0.000000e+00	0.000000e+00	0.000000e+00	
1.001394e+00	-1.367812e-03	1.290295e-01	7.241865e-01	3.582835e+00	2.781300e+04	1.110449e+04	2.998058e+02	-7.181000e-02	8.161389e-02	1.844997e-05	0.000000e+00	0.000000e+00	0.000000e+00	0.000000e+00	
1.001935e+00	-1.962426e-03	1.288928e-01	9.474652e-01	2.272470e+00	2.777651e+04	1.110120e+04	3.000348e+02	-1.032818e-01	5.500953e-02	1.846081e-05	0.000000e+00	0.000000e+00	0.000000e+00	0.000000e+00	
1.001492e+00	-1.786171e-03	1.289813e-01	9.377266e-01	2.958938e+00	2.779919e+04	1.110473e+04	2.999244e+02	-6.948544e-02	6.931645e-02	1.845558e-05	0.000000e+00	0.000000e+00	0.000000e+00	0.000000e+00	
1.002104e+00	-2.398521e-03	1.288528e-01	1.248939e+00	2.069467e+00	2.776860e+04	1.109837e+04	3.000515e+02	-1.302927e-01	5.402072e-02	1.846160e-05	0.000000e+00	0.000000e+00	0.000000e+00	0.000000e+00	
1.002280e+00	-2.888297e-03	1.289136e-01	1.539725e+00	1.913824e+00	2.778298e+04	1.110383e+04	3.000575e+02	-7.810630e-02	5.486986e-02	1.846188e-05	0.000000e+00	0.000000e+00	0.000000e+00	0.000000e+00	
1.002897e+00	-3.026308e-03	1.289517e-01	1.568964e+00	1.731484e+00	2.779089e+04	1.110789e+04	3.000784e+02	-3.935253e-02	5.217837e-02	1.846287e-05	0.000000e+00	0.000000e+00	0.000000e+00	0.000000e+00	
1.003316e+00	-2.571362e-03	1.289253e-01	1.336183e+00	1.657716e+00	2.778305e+04	1.110619e+04	3.000939e+02	-5.559387e-02	4.755505e-02	1.846360e-05	0.000000e+00	0.000000e+00	0.000000e+00	0.000000e+00	
1.003363e+00	-1.556497e-03	1.290213e-01	8.808536e-01	1.516077e+00	2.780003e+04	1.111525e+04	3.001152e+02	3.095083e-02	3.913139e-02	1.846461e-05	0.000000e+00	0.000000e+00	0.000000e+00	0.000000e+00	
1.003713e+00	-7.819559e-04	1.290550e-01	4.324517e-01	1.427743e+00	2.780523e+04	1.111864e+04	3.001285e+02	6.339249e-02	3.328381e-02	1.846524e-05	0.000000e+00	0.000000e+00	0.000000e+00	0.000000e+00	
1.003716e+00	-2.073042e-03	1.289589e-01	1.158323e+00	1.553776e+00	2.778829e+04	1.110949e+04	3.001049e+02	-2.403185e-02	4.327350e-02	1.846413e-05	0.000000e+00	0.000000e+00	0.000000e+00	0.000000e+00	
1.003190e+00	-1.355215e-04	1.288654e-01	-3.579179e-01	1.257471e+00	2.776221e+04	1.110223e+04	3.001265e+02	-9.340612e-02	2.921304e-02	1.846515e-05	0.000000e+00	0.000000e+00	0.000000e+00	0.000000e+00	
1.002808e+00	2.138131e-04	1.291530e-01	-1.063042e+00	9.371465e-01	2.782193e+04	1.112566e+04	3.000902e+02	1.304676e-01	3.159624e-02	1.846343e-05	0.000000e+00	0.000000e+00	0.000000e+00	0.000000e+00	
1.001748e+00	-8.179149e-04	1.294209e-01	-3.807712e-01	2.341033e+00	2.789020e+04	1.114739e+04	3.000538e+02	3.380147e-01	5.277459e-02	1.846171e-05	0.000000e+00	0.000000e+00	0.000000e+00	0.000000e+00	
1.001384e+00	-1.006584e-03	1.292391e-01	-1.911015e-01	3.695117e+00	2.785906e+04	1.112244e+04	2.998034e+02	9.965764e-02	8.247975e-02	1.844986e-05	0.000000e+00	0.000000e+00	0.000000e+00	0.000000e+00	
1.002355e+00	5.669983e-04	1.284959e-01	-4.238329e-01	9.721634e-01	2.767742e+04	1.106922e+04	3.000945e+02	-4.088338e-01	2.376612e-02	1.846363e-05	0.000000e+00	0.000000e+00	0.000000e+00	0.000000e+00	
1.002272e+00	7.887911e-05	1.287411e-01	-1.175996e+00	9.376025e-01	2.773550e+04	1.109069e+04	3.001040e+02	-2.036902e-01	3.363959e-02	1.846408e-05	0.000000e+00	0.000000e+00	0.000000e+00	0.000000e+00	
1.002182e+00	-3.137099e-04	1.285999e-01	-1.011196e+00	1.275472e+00	2.770860e+04	1.107932e+04	3.001255e+02	-3.123129e-01	3.644422e-02	1.846510e-05	0.000000e+00	0.000000e+00	0.000000e+00	0.000000e+00	
1.001748e+00	-4.535922e-04	1.293856e-01	-1.565168e+00	1.697861e+00	2.788208e+04	1.114459e+04	3.000602e+02	3.112913e-01	5.139557e-02	1.846201e-05	0.000000e+00	0.000000e+00	0.000000e+00	0.000000e+00	
1.001040e+00	-1.169668e-03	1.283843e-01	6.039034e-01	5.093102e+00	2.768708e+04	1.103385e+04	2.993958e+02	-7.467005e-01	1.151677e-01	1.843056e-05	0.000000e+00	0.000000e+00	0.000000e+00	0.000000e+00	
1.003569e+00	-3.216367e-03	1.289681e-01	1.609049e+00	1.637386e+00	2.779457e+04	1.110965e+04	3.000880e+02	-2.247617e-02	5.125696e-02	1.846333e-05	0.000000e+00	0.000000e+00	0.000000e+00	0.000000e+00	
1.001094e+00	-1.600235e-03	1.290795e-01	1.385336e+00	4.435591e+00	2.783253e+04	1.109955e+04	2.995562e+02	-1.189934e-01	1.037570e-01	1.843816e-05	0.000000e+00	0.000000e+00	0.000000e+00	0.000000e+00	
1.000726e+00	-1.407090e-03	1.279201e-01	2.265796e+00	6.389161e+00	2.760806e+04	1.097137e+04	2.987806e+02	-1.343644e+00	1.529338e-01	1.840141e-05	0.000000e+00	0.000000e+00	0.000000e+00	0.000000e+00	
1.001584e+00	-2.253235e-03	1.290989e-01	1.204692e+00	2.594643e+00	2.782402e+04	1.111693e+04	2.999804e+02	4.703923e-02	6.381910e-02	1.845823e-05	0.000000e+00	0.000000e+00	0.000000e+00	0.000000e+00	
1.001141e+00	-2.073623e-03	1.281817e-01	1.620475e+00	3.325012e+00	2.763217e+04	1.103152e+04	2.998055e+02	-7.689703e-01	8.313317e-02	1.844996e-05	0.000000e+00	0.000000e+00	0.000000e+00	0.000000e+00	
1.001719e+00	-2.771516e-03	1.289149e-01	1.615185e+00	2.205283e+00	2.778478e+04	1.110232e+04	3.000136e+02	-9.256371e-02	6.106590e-02	1.845981e-05	0.000000e+00	0.000000e+00	0.000000e+00	0.000000e+00	
1.001920e+00	-3.273979e-03	1.289375e-01	1.836773e+00	1.937777e+00	2.779036e+04	1.110509e+04	3.000359e+02	-6.611352e-02	5.963359e-02	1.846086e-05	0.000000e+00	0.000000e+00	0.000000e+00	0.000000e+00	
1.002509e+00	-3.456045e-03	1.289678e-01	1.832463e+00	1.752221e+00	2.779647e+04	1.110862e+04	3.000607e+02	-3.237396e-02	5.661220e-02	1.846204e-05	0.000000e+00	0.000000e+00	0.000000e+00	0.000000e+00	
1.003375e+00	-3.637728e-03	1.289582e-01	1.872773e+00	1.622015e+00	2.779474e+04	1.110838e+04	3.000765e+02	-3.470106e-02	5.532318e-02	1.846278e-05	0.000000e+00	0.000000e+00	0.000000e+00	0.000000e+00	
1.004032e+00	-2.687198e-03	1.289442e-01	1.431656e+00	1.569474e+00	2.778759e+04	1.110804e+04	3.000999e+02	-3.793133e-02	4.743989e-02	1.846389e-05	0.000000e+00	0.000000e+00	0.000000e+00	0.000000e+00	
1.003847e+00	-4.078385e-05	1.290397e-01	-2.988547e-01	1.307302e+00	2.779908e+04	1.111684e+04	3.001156e+02	4.620039e-02	2.992410e-02	1.846463e-05	0.000000e+00	0.000000e+00	0.000000e+00	0.000000e+00	
1.004046e+00	-1.463425e-03	1.288876e-01	9.281491e-01	1.471929e+00	2.777095e+04	1.110368e+04	3.001140e+02	-7.955025e-02	3.887564e-02	1.846456e-05	0.000000e+00	0.000000e+00	0.000000e+00	0.000000e+00	
1.004435e+00	-6.742369e-04	1.289494e-01	4.547091e-01	1.416535e+00	2.778203e+04	1.110938e+04	3.001241e+02	-2.512030e-02	3.322038e-02	1.846503e-05	0.000000e+00	0.000000e+00	0.000000e+00	0.000000e+00	
1.004469e+00	-2.073206e-03	1.289965e-01	1.218531e+00	1.507417e+00	2.779653e+04	1.111279e+04	3.001066e+02	7.459066e-03	4.326765e-02	1.846421e-05	0.000000e+00	0.000000e+00	0.000000e+00	0.000000e+00	
1.003384e+00	4.335229e-04	1.289326e-01	-8.711990e-01	1.088831e+00	2.777288e+04	1.110614e+04	3.000756e+02	-5.609268e-02	3.114452e-02	1.846274e-05	0.000000e+00	0.000000e+00	0.000000e+00	0.000000e+00	
1.002900e+00	7.799634e-04	1.290980e-01	-5.212047e-01	1.020678e+00	2.780451e+04	1.111977e+04	3.000590e+02	7.414139e-02	2.556425e-02	1.846195e-05	0.000000e+00	0.000000e+00	0.000000e+00	0.000000e+00	
1.004065e+00	6.449509e-04	1.289703e-01	-9.036119e-01	1.123185e+00	2.778039e+04	1.110894e+04	3.000635e+02	-2.934820e-02	3.218724e-02	1.846217e-05	0.000000e+00	0.000000e+00	0.000000e+00	0.000000e+00	
1.002425e+00	1.074952e-03	1.293496e-01	1.580974e+00	2.429192e+00	2.786682e+04	1.113374e+04	2.998515e+02	2.076437e-01	6.454820e-02	1.845213e-05	0.000000e+00	0.000000e+00	0.000000e+00	0.000000e+00	
1.001388e+00	-6.552163e-04	1.279227e-01	-1.370743e+00	2.526720e+00	2.757070e+04	1.101536e+04	2.999725e+02	-9.233675e-01	6.471995e-02	1.845786e-05	0.000000e+00	0.000000e+00	0.000000e+00	0.000000e+00	
1.001053e+00	-8.527908e-04	1.286470e-01	-1.969481e+00	4.615463e+00	2.774341e+04	1.105822e+04	2.994441e+02	-5.139388e-01	1.124432e-01	1.843285e-05	0.000000e+00	0.000000e+00	0.000000e+00	0.000000e+00	
1.001939e+00	8.130949e-04	1.296837e-01	2.206639e+00	3.397014e+00	2.795164e+04	1.115535e+04	2.996596e+02	4.141155e-01	9.001030e-02	1.844305e-05	0.000000e+00	0.000000e+00	0.000000e+00	0.000000e+00	
1.001891e+00	3.570484e-04	1.291119e-01	-2.454145e-01	1.494088e+00	2.781394e+04	1.112202e+04	3.000875e+02	9.571145e-02	3.376899e-02	1.846330e-05	0.000000e+00	0.000000e+00	0.000000e+00	0.000000e+00	
1.001817e+00	-5.446011e-05	1.296432e-01	-1.774750e+00	1.133466e+00	2.793408e+04	1.116679e+04	3.000606e+02	5.234197e-01	4.677549e-02	1.846203e-05	0.000000e+00	0.000000e+00	0.000000e+00	0.000000e+00	
1.001454e+00	-2.657313e-04	1.280566e-01	-1.962161e+00	1.698538e+00	2.759634e+04	1.102802e+04	3.000030e+02	-8.024567e-01	5.836580e-02	1.845931e-05	0.000000e+00	0.000000e+00	0.000000e+00	0.000000e+00	
1.000704e+00	-1.000109e-03	1.296199e-01	-1.629363e+00	7.305762e+00	2.798222e+04	1.110644e+04	2.984924e+02	-5.322888e-02	1.667321e-01	1.838774e-05	0.000000e+00	0.000000e+00	0.000000e+00	0.000000e+00	
1.000349e+00	-1.278026e-03	1.284142e-01	2.316057e+00	9.757921e+00	2.777099e+04	1.095174e+04	2.970987e+02	-1.531176e+00	2.260196e-01	1.832156e-05	0.000000e+00	0.000000e+00	0.000000e+00	0.000000e+00	
3.124498e-03	-5.540223e-02	1.243670e-01	3.635369e+00	-1.174490e+01	2.700702e+04	1.055972e+04	2.957861e+02	-5.276620e+00	2.867304e-01	1.825909e-05	0.000000e+00	0.000000e+00	0.000000e+00	0.000000e+00	
2.537646e-03	-5.334370e-02	1.243232e-01	3.216614e+00	-1.189998e+01	2.699898e+04	1.055514e+04	2.957619e+02	-5.320416e+00	2.875988e-01	1.825793e-05	0.000000e+00	0.000000e+00	0.000000e+00	0.000000e+00	
2.003081e-03	-5.127629e-02	1.245817e-01	2.769540e+00	-1.190828e+01	2.705244e+04	1.058101e+04	2.958714e+02	-5.073270e+00	2.845990e-01	1.826315e-05	0.000000e+00	0.000000e+00	0.000000e+00	0.000000e+00	
1.004417e+00	-3.685502e-03	1.289589e-01	1.819659e+00	1.546507e+00	2.779443e+04	1.110893e+04	3.000898e+02	-2.942915e-02	5.332368e-02	1.846341e-05	0.000000e+00	0.000000e+00	0.000000e+00	0.000000e+00	
1.000730e+00	-1.897928e-03	1.294027e-01	2.271427e+00	4.700565e+00	2.790896e+04	1.112146e+04	2.993979e+02	9.030021e-02	1.163065e-01	1.843066e-05	0.000000e+00	0.000000e+00	0.000000e+00	0.000000e+00	
1.000388e+00	-1.645381e-03	1.273414e-01	4.782898e+00	5.902099e+00	2.749711e+04	1.090820e+04	2.984103e+02	-1.947188e+00	1.722675e-01	1.838385e-05	0.000000e+00	0.000000e+00	0.000000e+00	0.000000e+00	
1.001192e+00	-2.541800e-03	1.288594e-01	1.830310e+00	2.790474e+00	2.777690e+04	1.109347e+04	2.999037e+02	-1.770696e-01	7.459746e-02	1.845460e-05	0.000000e+00	0.000000e+00	0.000000e+00	0.000000e+00	
1.000750e+00	-2.357477e-03	1.292292e-01	2.031333e+00	3.366693e+00	2.786076e+04	1.112038e+04	2.997708e+02	7.996813e-02	8.766250e-02	1.844832e-05	0.000000e+00	0.000000e+00	0.000000e+00	0.000000e+00	
1.001336e+00	-3.188771e-03	1.288967e-01	2.014069e+00	2.251086e+00	2.778402e+04	1.109945e+04	2.999784e+02	-1.199780e-01	6.749223e-02	1.845814e-05	0.000000e+00	0.000000e+00	0.000000e+00	0.000000e+00	
1.001604e+00	-3.725407e-03	1.288559e-01	2.087610e+00	1.957897e+00	2.777497e+04	1.109728e+04	3.000147e+02	-1.407497e-01	6.396712e-02	1.845986e-05	0.000000e+00	0.000000e+00	0.000000e+00	0.000000e+00	
1.000046e+00	-1.489843e-03	1.294910e-01	6.304915e+00	5.576266e+00	2.797165e+04	1.107924e+04	2.980578e+02	-3.130924e-01	1.878110e-01	1.836712e-05	0.000000e+00	0.000000e+00	0.000000e+00	0.000000e+00	
9.997621e-01	-1.104660e-03	1.310582e-01	7.106685e+00	2.228798e+00	2.828965e+04	1.123121e+04	2.985332e+02	1.138837e+00	1.640702e-01	1.838968e-05	0.000000e+00	0.000000e+00	0.000000e+00	0.000000e+00	
1.002227e+00	-3.821445e-03	1.289297e-01	2.075906e+00	1.792287e+00	2.779040e+04	1.110449e+04	3.000380e+02	-7.179528e-02	6.125868e-02	1.846096e-05	0.000000e+00	0.000000e+00	0.000000e+00	0.000000e+00	
1.002883e+00	-4.151214e-03	1.289288e-01	2.124388e+00	1.645055e+00	2.779056e+04	1.110503e+04	3.000544e+02	-6.669214e-02	6.001318e-02	1.846174e-05	0.000000e+00	0.000000e+00	0.000000e+00	0.000000e+00	
1.003909e+00	-4.434141e-03	1.289596e-01	2.203736e+00	1.538886e+00	2.779842e+04	1.110816e+04	3.000675e+02	-3.673178e-02	6.001995e-02	1.846236e-05	0.000000e+00	0.000000e+00	0.000000e+00	0.000000e+00	
1.004972e+00	-2.909621e-03	1.289717e-01	1.521226e+00	1.498943e+00	2.779394e+04	1.111050e+04	3.001025e+02	-1.436372e-02	4.768150e-02	1.846401e-05	0.000000e+00	0.000000e+00	0.000000e+00	0.000000e+00	
1.004616e+00	1.059316e-04	1.289297e-01	-2.842399e-01	1.295063e+00	2.777494e+04	1.110725e+04	3.001123e+02	-4.546906e-02	2.961169e-02	1.846448e-05	0.000000e+00	0.000000e+00	0.000000e+00	0.000000e+00	
1.004844e+00	-1.368265e-03	1.290215e-01	9.231618e-01	1.463619e+00	2.779967e+04	1.111523e+04	3.001142e+02	3.075348e-02	3.861903e-02	1.846457e-05	0.000000e+00	0.000000e+00	0.000000e+00	0.000000e+00	
1.005255e+00	-5.417393e-04	1.289633e-01	4.076364e-01	1.398617e+00	2.778471e+04	1.111059e+04	3.001244e+02	-1.351666e-02	3.252649e-02	1.846505e-05	0.000000e+00	0.000000e+00	0.000000e+00	0.000000e+00	
1.005376e+00	-2.090730e-03	1.289483e-01	1.252836e+00	1.453297e+00	2.778598e+04	1.110868e+04	3.001079e+02	-3.176414e-02	4.284691e-02	1.846427e-05	0.000000e+00	0.000000e+00	0.000000e+00	0.000000e+00	
1.005574e+00	-3.721481e-03	1.289579e-01	1.831056e+00	1.465963e+00	2.779417e+04	1.110914e+04	3.000977e+02	-2.743162e-02	5.237510e-02	1.846378e-05	0.000000e+00	0.000000e+00	0.000000e+00	0.000000e+00	
1.004882e+00	9.393832e-04	1.288908e-01	-7.733750e-01	1.068466e+00	2.776288e+04	1.110245e+04	3.000733e+02	-9.128121e-02	2.946837e-02	1.846263e-05	0.000000e+00	0.000000e+00	0.000000e+00	0.000000e+00	
1.003501e+00	1.075994e-03	1.286833e-01	-4.547596e-01	1.227726e+00	2.771424e+04	1.108303e+04	3.000313e+02	-2.768476e-01	2.929989e-02	1.846065e-05	0.000000e+00	0.000000e+00	0.000000e+00	0.000000e+00	
1.002949e+00	1.417013e-03	1.290962e-01	1.051669e+00	1.934937e+00	2.780475e+04	1.111438e+04	2.999179e+02	2.271061e-02	4.913681e-02	1.845528e-05	0.000000e+00	0.000000e+00	0.000000e+00	0.000000e+00	
1.004265e+00	1.554752e-03	1.291415e-01	-3.197025e-01	1.240008e+00	2.781288e+04	1.112261e+04	3.000347e+02	1.013363e-01	2.855611e-02	1.846080e-05	0.000000e+00	0.000000e+00	0.000000e+00	0.000000e+00	
1.002665e+00	1.727855e-03	1.290437e-01	4.233631e+00	4.234985e+00	2.783364e+04	1.107788e+04	2.990544e+02	-3.260480e-01	1.338556e-01	1.841438e-05	0.000000e+00	0.000000e+00	0.000000e+00	0.000000e+00	
1.001992e+00	1.346185e-03	1.299239e-01	5.072008e+00	5.878450e+00	2.805504e+04	1.112922e+04	2.984051e+02	1.644795e-01	1.725643e-01	1.838360e-05	0.000000e+00	0.000000e+00	0.000000e+00	0.000000e+00	
1.001122e+00	-4.534290e-04	1.319521e-01	-4.099936e+00	2.741424e+00	2.845451e+04	1.134493e+04	2.995133e+02	2.225429e+00	1.077339e-01	1.843612e-05	0.000000e+00	0.000000e+00	0.000000e+00	0.000000e+00	
1.000803e+00	-6.165920e-04	1.254130e-01	-4.052374e+00	5.137501e+00	2.706526e+04	1.075783e+04	2.988219e+02	-3.383911e+00	1.505580e-01	1.840336e-05	0.000000e+00	0.000000e+00	0.000000e+00	0.000000e+00	
1.001558e+00	1.055809e-03	1.295144e-01	6.037515e+00	7.561560e+00	2.800794e+04	1.105859e+04	2.974487e+02	-5.103272e-01	2.160885e-01	1.833819e-05	0.000000e+00	0.000000e+00	0.000000e+00	0.000000e+00	
1.001504e+00	6.023853e-04	1.291125e-01	3.952064e+00	5.027759e+00	2.785859e+04	1.108009e+04	2.989546e+02	-3.049851e-01	1.428983e-01	1.840965e-05	0.000000e+00	0.000000e+00	0.000000e+00	0.000000e+00	
1.001482e+00	1.489410e-04	1.279179e-01	2.412202e-01	1.913535e+00	2.755978e+04	1.101810e+04	3.000583e+02	-8.972356e-01	4.341872e-02	1.846192e-05	0.000000e+00	0.000000e+00	0.000000e+00	0.000000e+00	
1.001148e+00	-4.558296e-05	1.287045e-01	-4.356347e-01	2.587751e+00	2.773237e+04	1.108225e+04	2.999608e+02	-2.843517e-01	5.872407e-02	1.845731e-05	0.000000e+00	0.000000e+00	0.000000e+00	0.000000e+00	
1.000463e+00	-6.910650e-04	1.334879e-01	-9.967519e+00	5.953133e+00	2.889646e+04	1.135663e+04	2.963726e+02	2.337166e+00	2.520120e-01	1.828701e-05	0.000000e+00	0.000000e+00	0.000000e+00	0.000000e+00	
1.000000e+00	-1.000000e-03	1.135224e-01	-1.580206e+00	6.060644e+00	2.449912e+04	9.730537e+03	2.985971e+02	-1.319882e+01	1.592676e-01	1.839271e-05	0.000000e+00	0.000000e+00	0.000000e+00	0.000000e+00	
4.487486e-03	-5.960355e-02	1.244315e-01	4.081532e+00	-1.166273e+01	2.702227e+04	1.056351e+04	2.957386e+02	-5.240468e+00	2.880415e-01	1.825682e-05	0.000000e+00	0.000000e+00	0.000000e+00	0.000000e+00	
6.075662e-03	-6.382341e-02	1.242286e-01	4.660330e+00	-1.157621e+01	2.698182e+04	1.054202e+04	2.956191e+02	-5.445791e+00	2.914376e-01	1.825113e-05	0.000000e+00	0.000000e+00	0.000000e+00	0.000000e+00	
1.573017e-04	-5.489529e-02	1.247677e-01	3.342544e+00	-1.156878e+01	2.708898e+04	1.060314e+04	2.960484e+02	-4.861773e+00	2.798113e-01	1.827158e-05	0.000000e+00	0.000000e+00	0.000000e+00	0.000000e+00	
9.374896e-05	-5.855614e-02	1.248213e-01	3.792059e+00	-1.138186e+01	2.709939e+04	1.060914e+04	2.960888e+02	-4.804439e+00	2.786260e-01	1.827350e-05	0.000000e+00	0.000000e+00	0.000000e+00	0.000000e+00	
-3.002113e-04	-5.257506e-02	1.248085e-01	2.958412e+00	-1.161565e+01	2.709648e+04	1.060836e+04	2.960973e+02	-4.811957e+00	2.784076e-01	1.827391e-05	0.000000e+00	0.000000e+00	0.000000e+00	0.000000e+00	
-2.361905e-03	-5.403520e-02	1.250710e-01	3.102130e+00	-1.138677e+01	2.714938e+04	1.063703e+04	2.962743e+02	-4.538051e+00	2.734605e-01	1.828234e-05	0.000000e+00	0.000000e+00	0.000000e+00	0.000000e+00	
1.078855e-03	-4.700658e-02	1.246027e-01	2.210674e+00	-1.186417e+01	2.705351e+04	1.058763e+04	2.960067e+02	-5.010018e+00	2.808158e-01	1.826960e-05	0.000000e+00	0.000000e+00	0.000000e+00	0.000000e+00	
-1.873010e-03	-4.914754e-02	1.250226e-01	2.462006e+00	-1.150477e+01	2.713753e+04	1.063358e+04	2.962930e+02	-4.571001e+00	2.727115e-01	1.828323e-05	0.000000e+00	0.000000e+00	0.000000e+00	0.000000e+00	
1.005023e+00	-4.604122e-03	1.289806e-01	2.175328e+00	1.455014e+00	2.780285e+04	1.111052e+04	3.000822e+02	-1.421222e-02	5.842838e-02	1.846305e-05	0.000000e+00	0.000000e+00	0.000000e+00	0.000000e+00	
1.001532e+00	-4.189917e-03	1.289324e-01	2.341742e+00	1.864143e+00	2.779369e+04	1.110358e+04	3.000070e+02	-8.052302e-02	6.685719e-02	1.845950e-05	0.000000e+00	0.000000e+00	0.000000e+00	0.000000e+00	
1.000302e+00	-2.224495e-03	1.280582e-01	3.228212e+00	3.852079e+00	2.761893e+04	1.100812e+04	2.994582e+02	-9.925388e-01	1.131335e-01	1.843351e-05	0.000000e+00	0.000000e+00	0.000000e+00	0.000000e+00	
1.000761e+00	-3.043086e-03	1.289842e-01	2.380718e+00	2.759558e+00	2.780790e+04	1.110257e+04	2.998590e+02	-9.020940e-02	8.139613e-02	1.845249e-05	0.000000e+00	0.000000e+00	0.000000e+00	0.000000e+00	
1.001005e+00	-3.668706e-03	1.288693e-01	2.289639e+00	2.123725e+00	2.778059e+04	1.109710e+04	2.999786e+02	-1.424355e-01	6.979397e-02	1.845815e-05	0.000000e+00	0.000000e+00	0.000000e+00	0.000000e+00	
9.996117e-01	-1.963760e-03	1.272177e-01	4.274438e+00	2.636891e+00	2.743726e+04	1.093525e+04	2.994413e+02	-1.688774e+00	1.138034e-01	1.843271e-05	0.000000e+00	0.000000e+00	0.000000e+00	0.000000e+00	
9.990485e-01	-1.418595e-03	1.277657e-01	4.512254e+00	2.210247e+00	2.755466e+04	1.098235e+04	2.994409e+02	-1.238809e+00	1.133638e-01	1.843269e-05	0.000000e+00	0.000000e+00	0.000000e+00	0.000000e+00	
1.002253e+00	-4.525470e-03	1.289924e-01	2.331340e+00	1.668207e+00	2.780632e+04	1.110979e+04	3.000349e+02	-2.122824e-02	6.400086e-02	1.846081e-05	0.000000e+00	0.000000e+00	0.000000e+00	0.000000e+00	
1.002927e+00	-4.932910e-03	1.289697e-01	2.364489e+00	1.580903e+00	2.780207e+04	1.110828e+04	3.000472e+02	-3.560041e-02	6.351039e-02	1.846140e-05	0.000000e+00	0.000000e+00	0.000000e+00	0.000000e+00	
1.001717e+00	-5.104304e-03	1.288472e-01	2.549989e+00	1.696341e+00	2.777733e+04	1.109637e+04	3.000105e+02	-1.493830e-01	6.845574e-02	1.845966e-05	0.000000e+00	0.000000e+00	0.000000e+00	0.000000e+00	
1.004689e+00	-5.678713e-03	1.289854e-01	2.486848e+00	1.419147e+00	2.780724e+04	1.111018e+04	3.000620e+02	-1.743764e-02	6.392480e-02	1.846209e-05	0.000000e+00	0.000000e+00	0.000000e+00	0.000000e+00	
1.003655e+00	-5.462088e-03	1.289817e-01	2.512830e+00	1.495404e+00	2.780672e+04	1.110943e+04	3.000502e+02	-2.462479e-02	6.528643e-02	1.846154e-05	0.000000e+00	0.000000e+00	0.000000e+00	0.000000e+00	
1.006036e+00	-2.794315e-03	1.289738e-01	1.510621e+00	1.432705e+00	2.779389e+04	1.111084e+04	3.001065e+02	-1.119684e-02	4.648228e-02	1.846420e-05	0.000000e+00	0.000000e+00	0.000000e+00	0.000000e+00	
1.005489e+00	2.852867e-04	1.290377e-01	-2.353336e-01	1.272774e+00	2.779807e+04	1.111663e+04	3.001144e+02	4.416559e-02	2.888299e-02	1.846457e-05	0.000000e+00	0.000000e+00	0.000000e+00	0.000000e+00	
1.005747e+00	-1.251887e-03	1.289637e-01	8.828133e-01	1.419467e+00	2.778674e+04	1.111036e+04	3.001173e+02	-1.569800e-02	3.732247e-02	1.846471e-05	0.000000e+00	0.000000e+00	0.000000e+00	0.000000e+00	
1.006183e+00	-3.824350e-04	1.289877e-01	4.038608e-01	1.363470e+00	2.778969e+04	1.111274e+04	3.001257e+02	7.000898e-03	3.174376e-02	1.846511e-05	0.000000e+00	0.000000e+00	0.000000e+00	0.000000e+00	
1.006337e+00	-1.843743e-03	1.290001e-01	1.188693e+00	1.401973e+00	2.779634e+04	1.111330e+04	3.001120e+02	1.234384e-02	4.102823e-02	1.846446e-05	0.000000e+00	0.000000e+00	0.000000e+00	0.000000e+00	
1.006730e+00	-3.667757e-03	1.289742e-01	1.779787e+00	1.389793e+00	2.779667e+04	1.111076e+04	3.001036e+02	-1.189025e-02	5.041527e-02	1.846406e-05	0.000000e+00	0.000000e+00	0.000000e+00	0.000000e+00	
1.006235e+00	-4.732136e-03	1.289958e-01	2.132758e+00	1.383705e+00	2.780556e+04	1.111220e+04	3.000924e+02	1.866304e-03	5.675123e-02	1.846353e-05	0.000000e+00	0.000000e+00	0.000000e+00	0.000000e+00	
1.005837e+00	1.027972e-03	1.289740e-01	-6.428669e-01	1.068989e+00	2.778093e+04	1.110996e+04	3.000824e+02	-1.956194e-02	2.785066e-02	1.846306e-05	0.000000e+00	0.000000e+00	0.000000e+00	0.000000e+00	
1.005249e+00	1.792908e-03	1.288874e-01	-2.405772e-01	1.059130e+00	2.775803e+04	1.110138e+04	3.000523e+02	-1.015209e-01	2.426699e-02	1.846164e-05	0.000000e+00	0.000000e+00	0.000000e+00	0.000000e+00	
1.003542e+00	2.073363e-03	1.287159e-01	2.596441e+00	2.640068e+00	2.773597e+04	1.107308e+04	2.996862e+02	-3.718883e-01	8.289485e-02	1.844431e-05	0.000000e+00	0.000000e+00	0.000000e+00	0.000000e+00	
1.004534e+00	2.470816e-03	1.289827e-01	2.177248e+00	2.117772e+00	2.778821e+04	1.110098e+04	2.998197e+02	-1.053665e-01	6.783932e-02	1.845063e-05	0.000000e+00	0.000000e+00	0.000000e+00	0.000000e+00	
1.002107e+00	2.027866e-03	1.305872e-01	7.313226e+00	7.820783e+00	2.826774e+04	1.113151e+04	2.969503e+02	1.863284e-01	2.373514e-01	1.831450e-05	0.000000e+00	0.000000e+00	0.000000e+00	0.000000e+00	
1.002874e+00	2.567901e-03	1.308850e-01	6.921646e+00	6.607944e+00	2.830541e+04	1.118223e+04	2.976248e+02	6.709650e-01	2.114040e-01	1.834656e-05	0.000000e+00	0.000000e+00	0.000000e+00	0.000000e+00	
1.001666e+00	1.577146e-03	1.319003e-01	7.389875e+00	9.132460e+00	2.857829e+04	1.122205e+04	2.963853e+02	1.051369e+00	2.580688e-01	1.828762e-05	0.000000e+00	0.000000e+00	0.000000e+00	0.000000e+00	
1.001197e+00	1.345927e-03	1.313074e-01	7.727786e+00	1.030215e+01	2.848402e+04	1.114099e+04	2.955731e+02	2.769084e-01	2.845712e-01	1.824894e-05	0.000000e+00	0.000000e+00	0.000000e+00	0.000000e+00	
1.000846e+00	-1.972518e-04	1.249444e-01	-1.748483e-01	2.712179e+00	2.692148e+04	1.075677e+04	2.999131e+02	-3.394015e+00	6.265498e-02	1.845505e-05	0.000000e+00	0.000000e+00	0.000000e+00	0.000000e+00	
1.000592e+00	-3.584056e-04	1.263154e-01	-2.653728e+00	4.100643e+00	2.722742e+04	1.085319e+04	2.993172e+02	-2.472745e+00	1.114915e-01	1.842684e-05	0.000000e+00	0.000000e+00	0.000000e+00	0.000000e+00	
1.001121e+00	8.651009e-04	1.326772e-01	6.759311e+00	1.001188e+01	2.874875e+04	1.127953e+04	2.961591e+02	1.600537e+00	2.639117e-01	1.827685e-05	0.000000e+00	0.000000e+00	0.000000e+00	0.000000e+00	
1.001136e+00	3.337369e-04	1.326842e-01	4.544722e+00	7.246915e+00	2.866220e+04	1.135459e+04	2.981140e+02	2.317637e+00	1.862576e-01	1.836978e-05	0.000000e+00	0.000000e+00	0.000000e+00	0.000000e+00	
1.000840e+00	1.525017e-04	1.303529e-01	7.697029e+00	8.951450e+00	2.823160e+04	1.107880e+04	2.960754e+02	-3.172487e-01	2.625537e-01	1.827287e-05	0.000000e+00	0.000000e+00	0.000000e+00	0.000000e+00	
1.000364e+00	-3.367482e-04	1.243189e-01	4.680855e+00	1.637262e+01	2.709666e+04	1.037217e+04	2.906450e+02	-7.068580e+00	4.007853e-01	1.801311e-05	0.000000e+00	0.000000e+00	0.000000e+00	0.000000e+00	
1.000000e+00	0.000000e+00	2.422875e-01	1.938688e+01	1.030664e+02	5.863880e+04	1.437661e+04	2.067073e+02	3.119058e+01	1.501792e+00	1.366359e-05	0.000000e+00	0.000000e+00	0.000000e+00	0.000000e+00	
1.078885e-03	-6.325302e-02	1.247931e-01	4.330552e+00	-1.125561e+01	2.709483e+04	1.060484e+04	2.960357e+02	-4.845565e+00	2.801781e-01	1.827098e-05	0.000000e+00	0.000000e+00	0.000000e+00	0.000000e+00	
7.917903e-03	-6.812478e-02	1.241660e-01	5.206738e+00	-1.144556e+01	2.697065e+04	1.053358e+04	2.955315e+02	-5.526365e+00	2.938513e-01	1.824696e-05	0.000000e+00	0.000000e+00	0.000000e+00	0.000000e+00	
1.006240e-02	-7.257809e-02	1.240762e-01	5.751450e+00	-1.129333e+01	2.695380e+04	1.052262e+04	2.954375e+02	-5.631143e+00	2.964338e-01	1.824247e-05	0.000000e+00	0.000000e+00	0.000000e+00	0.000000e+00	
1.251909e-02	-7.715392e-02	1.239895e-01	6.290604e+00	-1.111640e+01	2.693765e+04	1.051190e+04	2.953430e+02	-5.733525e+00	2.990138e-01	1.823797e-05	0.000000e+00	0.000000e+00	0.000000e+00	0.000000e+00	
1.529738e-02	-8.182322e-02	1.239026e-01	6.828264e+00	-1.090093e+01	2.692123e+04	1.050142e+04	2.952554e+02	-5.833675e+00	3.013786e-01	1.823379e-05	0.000000e+00	0.000000e+00	0.000000e+00	0.000000e+00	
1.843145e-02	-8.658561e-02	1.238300e-01	7.355926e+00	-1.063352e+01	2.690721e+04	1.049287e+04	2.951880e+02	-5.915378e+00	3.031587e-01	1.823058e-05	0.000000e+00	0.000000e+00	0.000000e+00	0.000000e+00	
2.196161e-02	-9.144894e-02	1.237868e-01	7.851053e+00	-1.032082e+01	2.689864e+04	1.048777e+04	2.951475e+02	-5.964122e+00	3.041701e-01	1.822864e-05	0.000000e+00	0.000000e+00	0.000000e+00	0.000000e+00	
2.590787e-02	-9.640591e-02	1.237718e-01	8.310938e+00	-9.988927e+00	2.689580e+04	1.048548e+04	2.951189e+02	-5.985964e+00	3.048470e-01	1.822728e-05	0.000000e+00	0.000000e+00	0.000000e+00	0.000000e+00	
3.032086e-02	-1.014888e-01	1.237568e-01	8.747835e+00	-9.643124e+00	2.689295e+04	1.048323e+04	2.950914e+02	-6.007445e+00	3.054973e-01	1.822597e-05	0.000000e+00	0.000000e+00	0.000000e+00	0.000000e+00	
3.519676e-02	-1.066383e-01	1.237372e-01	9.170050e+00	-9.267434e+00	2.688890e+04	1.048082e+04	2.950702e+02	-6.030454e+00	3.059714e-01	1.822496e-05	0.000000e+00	0.000000e+00	0.000000e+00	0.000000e+00	
4.055945e-02	-1.118285e-01	1.237349e-01	9.566299e+00	-8.858986e+00	2.688804e+04	1.048044e+04	2.950651e+02	-6.034074e+00	3.059983e-01	1.822472e-05	0.000000e+00	0.000000e+00	0.000000e+00	0.000000e+00	
4.640551e-02	-1.170115e-01	1.237517e-01	9.928398e+00	-8.424279e+00	2.689075e+04	1.048230e+04	2.950773e+02	-6.016354e+00	3.055416e-01	1.822530e-05	0.000000e+00	0.000000e+00	0.000000e+00	0.000000e+00	
5.272092e-02	-1.221407e-01	1.237865e-01	1.024947e+01	-7.967781e+00	2.689671e+04	1.048638e+04	2.951092e+02	-5.977355e+00	3.045330e-01	1.822682e-05	0.000000e+00	0.000000e+00	0.000000e+00	0.000000e+00	