TITLE = "Visualization of the volumetric solution"
VARIABLES = "x""y""Conservative_1""Conservative_2""Conservative_3""Conservative_4""Pressure""Temperature""C<sub>p</sub>""Mach""<greek>m</greek>""C<sub>f</sub>_x""C<sub>f</sub>_y""h""y<sup>+</sup>"
ZONE NODES= 5233, ELEMENTS= 10216, DATAPACKING=POINT, ZONETYPE=FEQUADRILATERAL
1.002197e+00	-1.309303e-03	1.291014e-01	6.804691e-01	1.996178e+00	2.781997e+04	1.112110e+04	3.000868e+02	8.684257e-02	4.704003e-02	1.846327e-05	0.000000e+00	0.000000e+00	0.000000e+00	0.000000e+00	
1.002615e+00	-9.255227e-04	1.290587e-01	4.791464e-01	1.650911e+00	2.780920e+04	1.111910e+04	3.001324e+02	6.778806e-02	3.835242e-02	1.846543e-05	0.000000e+00	0.000000e+00	0.000000e+00	0.000000e+00	
1.002286e+00	-1.621037e-03	1.289479e-01	8.554956e-01	1.960756e+00	2.778711e+04	1.110775e+04	3.000835e+02	-4.069667e-02	4.777269e-02	1.846311e-05	0.000000e+00	0.000000e+00	0.000000e+00	0.000000e+00	
1.001800e+00	-1.547629e-03	1.289099e-01	8.083415e-01	2.524231e+00	2.778138e+04	1.110165e+04	3.000072e+02	-9.892191e-02	5.921436e-02	1.845950e-05	0.000000e+00	0.000000e+00	0.000000e+00	0.000000e+00	
1.002459e+00	-2.014514e-03	1.289562e-01	1.050562e+00	1.886896e+00	2.778960e+04	1.110861e+04	3.000873e+02	-3.249783e-02	4.822442e-02	1.846329e-05	0.000000e+00	0.000000e+00	0.000000e+00	0.000000e+00	
1.002668e+00	-2.511913e-03	1.289604e-01	1.343891e+00	1.820673e+00	2.779205e+04	1.110888e+04	3.000849e+02	-2.990428e-02	5.052957e-02	1.846318e-05	0.000000e+00	0.000000e+00	0.000000e+00	0.000000e+00	
1.002756e+00	-1.473519e-03	1.289005e-01	8.714758e-01	1.678267e+00	2.777590e+04	1.110481e+04	3.001143e+02	-6.876669e-02	4.224300e-02	1.846457e-05	0.000000e+00	0.000000e+00	0.000000e+00	0.000000e+00	
1.003178e+00	-1.063160e-03	1.289595e-01	7.177540e-01	1.527939e+00	2.778750e+04	1.111058e+04	3.001331e+02	-1.361669e-02	3.769171e-02	1.846546e-05	0.000000e+00	0.000000e+00	0.000000e+00	0.000000e+00	
1.003060e+00	-2.020708e-03	1.289618e-01	1.136862e+00	1.663627e+00	2.779034e+04	1.110984e+04	3.001077e+02	-2.071297e-02	4.499048e-02	1.846426e-05	0.000000e+00	0.000000e+00	0.000000e+00	0.000000e+00	
1.003133e+00	-6.655647e-04	1.289303e-01	3.447824e-01	1.488927e+00	2.778021e+04	1.110846e+04	3.001438e+02	-3.388144e-02	3.413088e-02	1.846596e-05	0.000000e+00	0.000000e+00	0.000000e+00	0.000000e+00	
1.002160e+00	-9.665001e-04	1.288489e-01	4.563199e-01	1.947314e+00	2.776560e+04	1.110003e+04	3.001053e+02	-1.144270e-01	4.469692e-02	1.846414e-05	0.000000e+00	0.000000e+00	0.000000e+00	0.000000e+00	
1.001764e+00	-1.168478e-03	1.287895e-01	5.677198e-01	2.579665e+00	2.775545e+04	1.109134e+04	3.000088e+02	-1.974223e-01	5.906596e-02	1.845958e-05	0.000000e+00	0.000000e+00	0.000000e+00	0.000000e+00	
1.002647e+00	-3.687607e-04	1.290673e-01	-4.131599e-01	1.376510e+00	2.780896e+04	1.112038e+04	3.001468e+02	8.002884e-02	3.206111e-02	1.846611e-05	0.000000e+00	0.000000e+00	0.000000e+00	0.000000e+00	
1.002149e+00	-6.269633e-04	1.290401e-01	-1.558252e-01	1.801539e+00	2.780623e+04	1.111742e+04	3.001304e+02	5.175288e-02	4.034910e-02	1.846533e-05	0.000000e+00	0.000000e+00	0.000000e+00	0.000000e+00	
1.001394e+00	-1.371137e-03	1.290321e-01	8.220689e-01	3.661148e+00	2.781484e+04	1.110411e+04	2.997896e+02	-7.542574e-02	8.378060e-02	1.844920e-05	0.000000e+00	0.000000e+00	0.000000e+00	0.000000e+00	
1.001933e+00	-1.967188e-03	1.288911e-01	1.034891e+00	2.315464e+00	2.777732e+04	1.110095e+04	3.000319e+02	-1.056762e-01	5.666698e-02	1.846067e-05	0.000000e+00	0.000000e+00	0.000000e+00	0.000000e+00	
1.001491e+00	-1.789815e-03	1.289791e-01	1.029463e+00	3.021598e+00	2.779995e+04	1.110418e+04	2.999144e+02	-7.480227e-02	7.128808e-02	1.845511e-05	0.000000e+00	0.000000e+00	0.000000e+00	0.000000e+00	
1.002101e+00	-2.403723e-03	1.288527e-01	1.340824e+00	2.106913e+00	2.776983e+04	1.109825e+04	3.000485e+02	-1.314135e-01	5.581437e-02	1.846146e-05	0.000000e+00	0.000000e+00	0.000000e+00	0.000000e+00	
1.002276e+00	-2.893904e-03	1.289106e-01	1.634938e+00	1.947576e+00	2.778363e+04	1.110342e+04	3.000535e+02	-8.202975e-02	5.680461e-02	1.846169e-05	0.000000e+00	0.000000e+00	0.000000e+00	0.000000e+00	
1.002892e+00	-3.033560e-03	1.289510e-01	1.667988e+00	1.753652e+00	2.779215e+04	1.110778e+04	3.000770e+02	-4.041543e-02	5.404623e-02	1.846281e-05	0.000000e+00	0.000000e+00	0.000000e+00	0.000000e+00	
1.003312e+00	-2.579878e-03	1.289243e-01	1.435308e+00	1.671127e+00	2.778433e+04	1.110621e+04	3.000968e+02	-5.542880e-02	4.920179e-02	1.846374e-05	0.000000e+00	0.000000e+00	0.000000e+00	0.000000e+00	
1.003363e+00	-1.565182e-03	1.290200e-01	9.696905e-01	1.522228e+00	2.780125e+04	1.111545e+04	3.001238e+02	3.289076e-02	4.027956e-02	1.846502e-05	0.000000e+00	0.000000e+00	0.000000e+00	0.000000e+00	
1.003715e+00	-7.916071e-04	1.290529e-01	5.189228e-01	1.433229e+00	2.780628e+04	1.111891e+04	3.001407e+02	6.597260e-02	3.400835e-02	1.846582e-05	0.000000e+00	0.000000e+00	0.000000e+00	0.000000e+00	
1.003715e+00	-2.082782e-03	1.289586e-01	1.254225e+00	1.560907e+00	2.778982e+04	1.110971e+04	3.001117e+02	-2.194024e-02	4.471005e-02	1.846445e-05	0.000000e+00	0.000000e+00	0.000000e+00	0.000000e+00	
1.003193e+00	-1.433755e-04	1.288623e-01	-2.763201e-01	1.272595e+00	2.776298e+04	1.110256e+04	3.001426e+02	-9.025535e-02	2.909748e-02	1.846591e-05	0.000000e+00	0.000000e+00	0.000000e+00	0.000000e+00	
1.002812e+00	2.073079e-04	1.291467e-01	-9.975846e-01	9.633955e-01	2.782201e+04	1.112583e+04	3.001093e+02	1.320405e-01	3.092092e-02	1.846433e-05	0.000000e+00	0.000000e+00	0.000000e+00	0.000000e+00	
1.001749e+00	-8.219056e-04	1.294304e-01	-2.765982e-01	2.410047e+00	2.789333e+04	1.114824e+04	3.000546e+02	3.461460e-01	5.397367e-02	1.846175e-05	0.000000e+00	0.000000e+00	0.000000e+00	0.000000e+00	
1.001385e+00	-1.009758e-03	1.292485e-01	-8.279841e-02	3.789674e+00	2.786229e+04	1.112268e+04	2.997881e+02	1.019974e-01	8.449362e-02	1.844913e-05	0.000000e+00	0.000000e+00	0.000000e+00	0.000000e+00	
1.002360e+00	5.621213e-04	1.284935e-01	-4.020337e-01	9.922779e-01	2.767846e+04	1.106960e+04	3.001105e+02	-4.051490e-01	2.399211e-02	1.846439e-05	0.000000e+00	0.000000e+00	0.000000e+00	0.000000e+00	
1.002276e+00	7.394190e-05	1.287447e-01	-1.107305e+00	9.790233e-01	2.773779e+04	1.109172e+04	3.001234e+02	-1.938031e-01	3.305664e-02	1.846500e-05	0.000000e+00	0.000000e+00	0.000000e+00	0.000000e+00	
1.002185e+00	-3.186119e-04	1.286056e-01	-9.185952e-01	1.324170e+00	2.771123e+04	1.108045e+04	3.001427e+02	-3.014940e-01	3.608142e-02	1.846591e-05	0.000000e+00	0.000000e+00	0.000000e+00	0.000000e+00	
1.001750e+00	-4.573829e-04	1.293861e-01	-1.463873e+00	1.771449e+00	2.788329e+04	1.114515e+04	3.000744e+02	3.166908e-01	5.114526e-02	1.846268e-05	0.000000e+00	0.000000e+00	0.000000e+00	0.000000e+00	
1.001040e+00	-1.172118e-03	1.283829e-01	7.250767e-01	5.196895e+00	2.768851e+04	1.103251e+04	2.993627e+02	-7.595133e-01	1.178353e-01	1.842899e-05	0.000000e+00	0.000000e+00	0.000000e+00	0.000000e+00	
1.003563e+00	-3.225483e-03	1.289702e-01	1.713854e+00	1.651802e+00	2.779658e+04	1.110985e+04	3.000882e+02	-2.063551e-02	5.314540e-02	1.846334e-05	0.000000e+00	0.000000e+00	0.000000e+00	0.000000e+00	
1.001093e+00	-1.602911e-03	1.290696e-01	1.495284e+00	4.515802e+00	2.783208e+04	1.109777e+04	2.995313e+02	-1.360497e-01	1.062264e-01	1.843697e-05	0.000000e+00	0.000000e+00	0.000000e+00	0.000000e+00	
1.000726e+00	-1.408906e-03	1.279187e-01	2.395832e+00	6.479888e+00	2.761029e+04	1.096949e+04	2.987328e+02	-1.361618e+00	1.558715e-01	1.839914e-05	0.000000e+00	0.000000e+00	0.000000e+00	0.000000e+00	
1.001582e+00	-2.257130e-03	1.290928e-01	1.298042e+00	2.647378e+00	2.782398e+04	1.111612e+04	2.999727e+02	3.934041e-02	6.578186e-02	1.845787e-05	0.000000e+00	0.000000e+00	0.000000e+00	0.000000e+00	
1.001139e+00	-2.076460e-03	1.281753e-01	1.719278e+00	3.389951e+00	2.763231e+04	1.103038e+04	2.997896e+02	-7.798731e-01	8.543537e-02	1.844920e-05	0.000000e+00	0.000000e+00	0.000000e+00	0.000000e+00	
1.001715e+00	-2.775704e-03	1.289107e-01	1.708769e+00	2.252903e+00	2.778519e+04	1.110167e+04	3.000059e+02	-9.875640e-02	6.317121e-02	1.845944e-05	0.000000e+00	0.000000e+00	0.000000e+00	0.000000e+00	
1.001915e+00	-3.278567e-03	1.289361e-01	1.928767e+00	1.981447e+00	2.779138e+04	1.110469e+04	3.000284e+02	-6.988917e-02	6.176187e-02	1.846050e-05	0.000000e+00	0.000000e+00	0.000000e+00	0.000000e+00	
1.002503e+00	-3.462119e-03	1.289687e-01	1.927163e+00	1.783276e+00	2.779798e+04	1.110850e+04	3.000556e+02	-3.348208e-02	5.862769e-02	1.846179e-05	0.000000e+00	0.000000e+00	0.000000e+00	0.000000e+00	
1.003369e+00	-3.646162e-03	1.289628e-01	1.973158e+00	1.641356e+00	2.779716e+04	1.110865e+04	3.000731e+02	-3.207828e-02	5.730996e-02	1.846262e-05	0.000000e+00	0.000000e+00	0.000000e+00	0.000000e+00	
1.004028e+00	-2.697816e-03	1.289453e-01	1.536878e+00	1.578300e+00	2.778948e+04	1.110826e+04	3.001036e+02	-3.575939e-02	4.919447e-02	1.846406e-05	0.000000e+00	0.000000e+00	0.000000e+00	0.000000e+00	
1.003852e+00	-5.071306e-05	1.290374e-01	-2.238828e-01	1.319170e+00	2.780001e+04	1.111723e+04	3.001313e+02	4.989740e-02	2.985705e-02	1.846537e-05	0.000000e+00	0.000000e+00	0.000000e+00	0.000000e+00	
1.004045e+00	-1.474174e-03	1.288845e-01	1.018759e+00	1.475570e+00	2.777192e+04	1.110378e+04	3.001238e+02	-7.863418e-02	4.005924e-02	1.846502e-05	0.000000e+00	0.000000e+00	0.000000e+00	0.000000e+00	
1.004437e+00	-6.861790e-04	1.289465e-01	5.380196e-01	1.422207e+00	2.778295e+04	1.110960e+04	3.001367e+02	-2.304089e-02	3.395385e-02	1.846563e-05	0.000000e+00	0.000000e+00	0.000000e+00	0.000000e+00	
1.004467e+00	-2.085256e-03	1.289963e-01	1.319102e+00	1.512681e+00	2.779824e+04	1.111305e+04	3.001141e+02	9.980938e-03	4.480103e-02	1.846456e-05	0.000000e+00	0.000000e+00	0.000000e+00	0.000000e+00	
1.003390e+00	4.252715e-04	1.289301e-01	-8.165013e-01	1.107588e+00	2.777376e+04	1.110657e+04	3.000931e+02	-5.196944e-02	3.073215e-02	1.846357e-05	0.000000e+00	0.000000e+00	0.000000e+00	0.000000e+00	
1.002907e+00	7.734656e-04	1.290947e-01	-5.054502e-01	1.034849e+00	2.780532e+04	1.112007e+04	3.000748e+02	7.707084e-02	2.568998e-02	1.846270e-05	0.000000e+00	0.000000e+00	0.000000e+00	0.000000e+00	
1.004072e+00	6.345172e-04	1.289632e-01	-8.606627e-01	1.137440e+00	2.778024e+04	1.110894e+04	3.000802e+02	-2.928486e-02	3.184906e-02	1.846296e-05	0.000000e+00	0.000000e+00	0.000000e+00	0.000000e+00	
1.002432e+00	1.070214e-03	1.293439e-01	1.547121e+00	2.414660e+00	2.786673e+04	1.113397e+04	2.998711e+02	2.098828e-01	6.386807e-02	1.845306e-05	0.000000e+00	0.000000e+00	0.000000e+00	0.000000e+00	
1.001389e+00	-6.582189e-04	1.279378e-01	-1.265637e+00	2.626232e+00	2.757496e+04	1.101670e+04	2.999736e+02	-9.105985e-01	6.562858e-02	1.845791e-05	0.000000e+00	0.000000e+00	0.000000e+00	0.000000e+00	
1.001054e+00	-8.551345e-04	1.286391e-01	-1.851383e+00	4.730040e+00	2.774277e+04	1.105699e+04	2.994295e+02	-5.256134e-01	1.138278e-01	1.843215e-05	0.000000e+00	0.000000e+00	0.000000e+00	0.000000e+00	
1.001945e+00	8.097194e-04	1.296801e-01	2.173068e+00	3.382356e+00	2.795184e+04	1.115581e+04	2.996803e+02	4.184958e-01	8.933133e-02	1.844403e-05	0.000000e+00	0.000000e+00	0.000000e+00	0.000000e+00	
1.001895e+00	3.534445e-04	1.291142e-01	-2.299134e-01	1.524609e+00	2.781603e+04	1.112273e+04	3.001012e+02	1.024395e-01	3.438625e-02	1.846395e-05	0.000000e+00	0.000000e+00	0.000000e+00	0.000000e+00	
1.001820e+00	-5.816641e-05	1.296459e-01	-1.707260e+00	1.195939e+00	2.793607e+04	1.116773e+04	3.000795e+02	5.323568e-01	4.629876e-02	1.846292e-05	0.000000e+00	0.000000e+00	0.000000e+00	0.000000e+00	
1.001456e+00	-2.686242e-04	1.280693e-01	-1.887667e+00	1.784793e+00	2.760030e+04	1.102958e+04	3.000159e+02	-7.875245e-01	5.841796e-02	1.845992e-05	0.000000e+00	0.000000e+00	0.000000e+00	0.000000e+00	
1.000704e+00	-1.001795e-03	1.295980e-01	-1.507650e+00	7.396072e+00	2.797891e+04	1.110364e+04	2.984677e+02	-7.995652e-02	1.681690e-01	1.838657e-05	0.000000e+00	0.000000e+00	0.000000e+00	0.000000e+00	
1.000348e+00	-1.278998e-03	1.283394e-01	2.461305e+00	9.837105e+00	2.775802e+04	1.094297e+04	2.970334e+02	-1.615037e+00	2.286869e-01	1.831845e-05	0.000000e+00	0.000000e+00	0.000000e+00	0.000000e+00	
3.124498e-03	-5.679091e-02	1.248991e-01	3.216331e+00	-1.128325e+01	2.710667e+04	1.062224e+04	2.962696e+02	-4.679344e+00	2.722368e-01	1.828211e-05	0.000000e+00	0.000000e+00	0.000000e+00	0.000000e+00	
2.537646e-03	-5.455670e-02	1.248774e-01	2.839823e+00	-1.139271e+01	2.710264e+04	1.062027e+04	2.962661e+02	-4.698192e+00	2.724854e-01	1.828195e-05	0.000000e+00	0.000000e+00	0.000000e+00	0.000000e+00	
2.003081e-03	-5.231476e-02	1.251151e-01	2.442811e+00	-1.137624e+01	2.715162e+04	1.064423e+04	2.963704e+02	-4.469233e+00	2.694704e-01	1.828691e-05	0.000000e+00	0.000000e+00	0.000000e+00	0.000000e+00	
1.004410e+00	-3.696991e-03	1.289622e-01	1.928379e+00	1.557741e+00	2.779676e+04	1.110917e+04	3.000888e+02	-2.707195e-02	5.535184e-02	1.846337e-05	0.000000e+00	0.000000e+00	0.000000e+00	0.000000e+00	
1.000729e+00	-1.899827e-03	1.293863e-01	2.388287e+00	4.769493e+00	2.790747e+04	1.111901e+04	2.993698e+02	6.688925e-02	1.188543e-01	1.842933e-05	0.000000e+00	0.000000e+00	0.000000e+00	0.000000e+00	
1.000387e+00	-1.646509e-03	1.273214e-01	4.919373e+00	5.966616e+00	2.749589e+04	1.090442e+04	2.983538e+02	-1.983321e+00	1.754031e-01	1.838116e-05	0.000000e+00	0.000000e+00	0.000000e+00	0.000000e+00	
1.001189e+00	-2.544741e-03	1.288516e-01	1.926857e+00	2.848130e+00	2.777668e+04	1.109232e+04	2.998907e+02	-1.881069e-01	7.687296e-02	1.845399e-05	0.000000e+00	0.000000e+00	0.000000e+00	0.000000e+00	
1.000747e+00	-2.359431e-03	1.292180e-01	2.133588e+00	3.429795e+00	2.786005e+04	1.111877e+04	2.997534e+02	6.457889e-02	9.006353e-02	1.844749e-05	0.000000e+00	0.000000e+00	0.000000e+00	0.000000e+00	
1.001331e+00	-3.191943e-03	1.288903e-01	2.106204e+00	2.304860e+00	2.778405e+04	1.109849e+04	2.999674e+02	-1.291082e-01	6.976893e-02	1.845762e-05	0.000000e+00	0.000000e+00	0.000000e+00	0.000000e+00	
1.001598e+00	-3.729048e-03	1.288505e-01	2.176433e+00	2.007976e+00	2.777515e+04	1.109645e+04	3.000049e+02	-1.486533e-01	6.618686e-02	1.845940e-05	0.000000e+00	0.000000e+00	0.000000e+00	0.000000e+00	
1.000045e+00	-1.490287e-03	1.294552e-01	6.451348e+00	5.626685e+00	2.796735e+04	1.107373e+04	2.979921e+02	-3.657328e-01	1.910823e-01	1.836400e-05	0.000000e+00	0.000000e+00	0.000000e+00	0.000000e+00	
9.997621e-01	-1.104660e-03	1.310121e-01	7.250975e+00	2.288432e+00	2.828302e+04	1.122495e+04	2.984720e+02	1.079104e+00	1.675726e-01	1.838677e-05	0.000000e+00	0.000000e+00	0.000000e+00	0.000000e+00	
1.002221e+00	-3.826642e-03	1.289285e-01	2.165411e+00	1.833344e+00	2.779145e+04	1.110409e+04	3.000299e+02	-7.562019e-02	6.337562e-02	1.846058e-05	0.000000e+00	0.000000e+00	0.000000e+00	0.000000e+00	
1.002876e+00	-4.158049e-03	1.289280e-01	2.216146e+00	1.675116e+00	2.779173e+04	1.110472e+04	3.000479e+02	-6.963156e-02	6.204997e-02	1.846143e-05	0.000000e+00	0.000000e+00	0.000000e+00	0.000000e+00	
1.003900e+00	-4.443784e-03	1.289626e-01	2.300336e+00	1.559792e+00	2.780046e+04	1.110821e+04	3.000617e+02	-3.632280e-02	6.206078e-02	1.846208e-05	0.000000e+00	0.000000e+00	0.000000e+00	0.000000e+00	
1.004967e+00	-2.923084e-03	1.289727e-01	1.631888e+00	1.505393e+00	2.779597e+04	1.111074e+04	3.001066e+02	-1.206263e-02	4.956859e-02	1.846421e-05	0.000000e+00	0.000000e+00	0.000000e+00	0.000000e+00	
1.004621e+00	9.349810e-05	1.289250e-01	-2.171023e-01	1.306289e+00	2.777535e+04	1.110742e+04	3.001279e+02	-4.383890e-02	2.957445e-02	1.846521e-05	0.000000e+00	0.000000e+00	0.000000e+00	0.000000e+00	
1.004845e+00	-1.381554e-03	1.290202e-01	1.014522e+00	1.468463e+00	2.780110e+04	1.111550e+04	3.001247e+02	3.339342e-02	3.983280e-02	1.846506e-05	0.000000e+00	0.000000e+00	0.000000e+00	0.000000e+00	
1.005259e+00	-5.563869e-04	1.289600e-01	4.869213e-01	1.406931e+00	2.778557e+04	1.111079e+04	3.001375e+02	-1.162348e-02	3.324104e-02	1.846567e-05	0.000000e+00	0.000000e+00	0.000000e+00	0.000000e+00	
1.005374e+00	-2.105669e-03	1.289471e-01	1.355176e+00	1.458772e+00	2.778759e+04	1.110889e+04	3.001161e+02	-2.981318e-02	4.446210e-02	1.846466e-05	0.000000e+00	0.000000e+00	0.000000e+00	0.000000e+00	
1.005567e+00	-3.736562e-03	1.289601e-01	1.945843e+00	1.473418e+00	2.779647e+04	1.110935e+04	3.000983e+02	-2.541441e-02	5.449888e-02	1.846382e-05	0.000000e+00	0.000000e+00	0.000000e+00	0.000000e+00	
1.004890e+00	9.262226e-04	1.288878e-01	-7.375200e-01	1.078629e+00	2.776362e+04	1.110280e+04	3.000895e+02	-8.797879e-02	2.919298e-02	1.846340e-05	0.000000e+00	0.000000e+00	0.000000e+00	0.000000e+00	
1.003509e+00	1.067646e-03	1.286770e-01	-4.530509e-01	1.234699e+00	2.771433e+04	1.108304e+04	3.000463e+02	-2.767435e-01	2.943377e-02	1.846135e-05	0.000000e+00	0.000000e+00	0.000000e+00	0.000000e+00	
1.002958e+00	1.410722e-03	1.290856e-01	1.011161e+00	1.923323e+00	2.780371e+04	1.111417e+04	2.999366e+02	2.065570e-02	4.848462e-02	1.845616e-05	0.000000e+00	0.000000e+00	0.000000e+00	0.000000e+00	
1.004275e+00	1.543958e-03	1.291369e-01	-3.294168e-01	1.237615e+00	2.781324e+04	1.112276e+04	3.000492e+02	1.027010e-01	2.855972e-02	1.846149e-05	0.000000e+00	0.000000e+00	0.000000e+00	0.000000e+00	
1.002675e+00	1.722783e-03	1.290137e-01	4.165905e+00	4.184748e+00	2.782706e+04	1.107677e+04	2.990941e+02	-3.366459e-01	1.320134e-01	1.841627e-05	0.000000e+00	0.000000e+00	0.000000e+00	0.000000e+00	
1.001999e+00	1.343098e-03	1.299073e-01	5.012680e+00	5.830321e+00	2.805106e+04	1.112941e+04	2.984480e+02	1.662491e-01	1.709027e-01	1.838563e-05	0.000000e+00	0.000000e+00	0.000000e+00	0.000000e+00	
1.001123e+00	-4.556650e-04	1.319696e-01	-4.018343e+00	2.846700e+00	2.845903e+04	1.134686e+04	2.995244e+02	2.243822e+00	1.075534e-01	1.843665e-05	0.000000e+00	0.000000e+00	0.000000e+00	0.000000e+00	
1.000804e+00	-6.182638e-04	1.254244e-01	-3.969053e+00	5.235303e+00	2.706860e+04	1.075861e+04	2.988165e+02	-3.376392e+00	1.511529e-01	1.840311e-05	0.000000e+00	0.000000e+00	0.000000e+00	0.000000e+00	
1.001564e+00	1.053879e-03	1.294975e-01	5.989727e+00	7.524030e+00	2.800371e+04	1.105864e+04	2.974890e+02	-5.098465e-01	2.147815e-01	1.834011e-05	0.000000e+00	0.000000e+00	0.000000e+00	0.000000e+00	
1.001509e+00	6.001585e-04	1.291030e-01	3.917236e+00	5.012407e+00	2.785709e+04	1.108014e+04	2.989781e+02	-3.044383e-01	1.421530e-01	1.841077e-05	0.000000e+00	0.000000e+00	0.000000e+00	0.000000e+00	
1.001486e+00	1.463348e-04	1.279249e-01	2.504807e-01	1.955625e+00	2.756279e+04	1.101904e+04	3.000674e+02	-8.882546e-01	4.438187e-02	1.846235e-05	0.000000e+00	0.000000e+00	0.000000e+00	0.000000e+00	
1.001150e+00	-4.750836e-05	1.287236e-01	-4.262313e-01	2.640066e+00	2.773780e+04	1.108401e+04	2.999640e+02	-2.675144e-01	5.983576e-02	1.845746e-05	0.000000e+00	0.000000e+00	0.000000e+00	0.000000e+00	
1.000463e+00	-6.921268e-04	1.334966e-01	-9.891888e+00	6.020463e+00	2.889800e+04	1.135830e+04	2.963969e+02	2.353146e+00	2.513340e-01	1.828817e-05	0.000000e+00	0.000000e+00	0.000000e+00	0.000000e+00	
1.000000e+00	-1.000000e-03	1.133524e-01	-1.503667e+00	6.112282e+00	2.446344e+04	9.715469e+03	2.985818e+02	-1.334278e+01	1.603066e-01	1.839198e-05	0.000000e+00	0.000000e+00	0.000000e+00	0.000000e+00	
4.487486e-03	-6.135459e-02	1.249276e-01	3.625684e+00	-1.125559e+01	2.711497e+04	1.062212e+04	2.961987e+02	-4.680448e+00	2.743514e-01	1.827874e-05	0.000000e+00	0.000000e+00	0.000000e+00	0.000000e+00	
6.075662e-03	-6.594099e-02	1.247143e-01	4.161742e+00	-1.123216e+01	2.707295e+04	1.059908e+04	2.960619e+02	-4.900577e+00	2.784465e-01	1.827222e-05	0.000000e+00	0.000000e+00	0.000000e+00	0.000000e+00	
-2.632248e-05	-5.617858e-02	1.252428e-01	2.981181e+00	-1.110719e+01	2.717710e+04	1.065964e+04	2.964969e+02	-4.322010e+00	2.660100e-01	1.829293e-05	0.000000e+00	0.000000e+00	0.000000e+00	0.000000e+00	
-1.615841e-04	-6.010319e-02	1.252699e-01	3.398263e+00	-1.097438e+01	2.718275e+04	1.066238e+04	2.965089e+02	-4.295825e+00	2.656735e-01	1.829350e-05	0.000000e+00	0.000000e+00	0.000000e+00	0.000000e+00	
-4.754498e-04	-5.368693e-02	1.252903e-01	2.633409e+00	-1.112900e+01	2.718590e+04	1.066558e+04	2.965495e+02	-4.265246e+00	2.644059e-01	1.829544e-05	0.000000e+00	0.000000e+00	0.000000e+00	0.000000e+00	
-2.684815e-03	-5.522131e-02	1.255040e-01	2.782628e+00	-1.093466e+01	2.722931e+04	1.068885e+04	2.966903e+02	-4.042967e+00	2.603589e-01	1.830214e-05	0.000000e+00	0.000000e+00	0.000000e+00	0.000000e+00	
1.078855e-03	-4.769375e-02	1.251468e-01	1.952435e+00	-1.131065e+01	2.715516e+04	1.065152e+04	2.964984e+02	-4.399542e+00	2.656953e-01	1.829300e-05	0.000000e+00	0.000000e+00	0.000000e+00	0.000000e+00	
-2.095881e-03	-4.999335e-02	1.254868e-01	2.196967e+00	-1.100510e+01	2.722359e+04	1.068872e+04	2.967276e+02	-4.044191e+00	2.589727e-01	1.830391e-05	0.000000e+00	0.000000e+00	0.000000e+00	0.000000e+00	
1.005013e+00	-4.617053e-03	1.289838e-01	2.280291e+00	1.468364e+00	2.780510e+04	1.111063e+04	3.000780e+02	-1.311710e-02	6.055006e-02	1.846285e-05	0.000000e+00	0.000000e+00	0.000000e+00	0.000000e+00	
1.001525e+00	-4.193169e-03	1.289290e-01	2.427038e+00	1.914999e+00	2.779432e+04	1.110290e+04	2.999964e+02	-8.700846e-02	6.905894e-02	1.845899e-05	0.000000e+00	0.000000e+00	0.000000e+00	0.000000e+00	
1.000300e+00	-2.225518e-03	1.280439e-01	3.335211e+00	3.912182e+00	2.761796e+04	1.100590e+04	2.994312e+02	-1.013748e+00	1.157397e-01	1.843224e-05	0.000000e+00	0.000000e+00	0.000000e+00	0.000000e+00	
1.000757e+00	-3.044984e-03	1.289737e-01	2.477047e+00	2.818287e+00	2.780727e+04	1.110108e+04	2.998432e+02	-1.044477e-01	8.380716e-02	1.845174e-05	0.000000e+00	0.000000e+00	0.000000e+00	0.000000e+00	
1.001000e+00	-3.670929e-03	1.288620e-01	2.378323e+00	2.179415e+00	2.778042e+04	1.109602e+04	2.999665e+02	-1.527589e-01	7.210039e-02	1.845758e-05	0.000000e+00	0.000000e+00	0.000000e+00	0.000000e+00	
9.996104e-01	-1.963748e-03	1.271802e-01	4.386147e+00	2.695503e+00	2.743147e+04	1.093091e+04	2.994104e+02	-1.730267e+00	1.166955e-01	1.843125e-05	0.000000e+00	0.000000e+00	0.000000e+00	0.000000e+00	
9.990485e-01	-1.418574e-03	1.277431e-01	4.636874e+00	2.266972e+00	2.755223e+04	1.097918e+04	2.994077e+02	-1.269020e+00	1.164789e-01	1.843112e-05	0.000000e+00	0.000000e+00	0.000000e+00	0.000000e+00	
1.002244e+00	-4.530408e-03	1.289908e-01	2.416089e+00	1.710603e+00	2.780727e+04	1.110932e+04	3.000260e+02	-2.568443e-02	6.609298e-02	1.846039e-05	0.000000e+00	0.000000e+00	0.000000e+00	0.000000e+00	
1.002917e+00	-4.939458e-03	1.289738e-01	2.451160e+00	1.613653e+00	2.780424e+04	1.110834e+04	3.000392e+02	-3.502401e-02	6.552609e-02	1.846102e-05	0.000000e+00	0.000000e+00	0.000000e+00	0.000000e+00	
1.001707e+00	-5.107494e-03	1.288441e-01	2.630336e+00	1.747358e+00	2.777795e+04	1.109570e+04	2.999995e+02	-1.558011e-01	7.058557e-02	1.845914e-05	0.000000e+00	0.000000e+00	0.000000e+00	0.000000e+00	
1.004676e+00	-5.689949e-03	1.289886e-01	2.575212e+00	1.442099e+00	2.780928e+04	1.111021e+04	3.000551e+02	-1.720571e-02	6.589347e-02	1.846177e-05	0.000000e+00	0.000000e+00	0.000000e+00	0.000000e+00	
1.003643e+00	-5.470373e-03	1.289847e-01	2.595427e+00	1.525353e+00	2.780860e+04	1.110939e+04	3.000423e+02	-2.501513e-02	6.721351e-02	1.846116e-05	0.000000e+00	0.000000e+00	0.000000e+00	0.000000e+00	
1.006032e+00	-2.811225e-03	1.289744e-01	1.622460e+00	1.439173e+00	2.779597e+04	1.111110e+04	3.001123e+02	-8.707411e-03	4.841956e-02	1.846447e-05	0.000000e+00	0.000000e+00	0.000000e+00	0.000000e+00	
1.005495e+00	2.698932e-04	1.290330e-01	-1.727315e-01	1.284165e+00	2.779849e+04	1.111679e+04	3.001299e+02	4.574231e-02	2.891413e-02	1.846531e-05	0.000000e+00	0.000000e+00	0.000000e+00	0.000000e+00	
1.005748e+00	-1.268157e-03	1.289616e-01	9.719515e-01	1.426672e+00	2.778804e+04	1.111059e+04	3.001285e+02	-1.350122e-02	3.854351e-02	1.846524e-05	0.000000e+00	0.000000e+00	0.000000e+00	0.000000e+00	
1.006187e+00	-4.002478e-04	1.289853e-01	4.799306e-01	1.373545e+00	2.779079e+04	1.111303e+04	3.001391e+02	9.801329e-03	3.247923e-02	1.846575e-05	0.000000e+00	0.000000e+00	0.000000e+00	0.000000e+00	
1.006336e+00	-1.861901e-03	1.289993e-01	1.288511e+00	1.409904e+00	2.779810e+04	1.111358e+04	3.001215e+02	1.505919e-02	4.263321e-02	1.846491e-05	0.000000e+00	0.000000e+00	0.000000e+00	0.000000e+00	
1.006723e+00	-3.686604e-03	1.289768e-01	1.897056e+00	1.397066e+00	2.779925e+04	1.111109e+04	3.001066e+02	-8.738696e-03	5.259838e-02	1.846421e-05	0.000000e+00	0.000000e+00	0.000000e+00	0.000000e+00	
1.006225e+00	-4.748836e-03	1.289999e-01	2.244441e+00	1.393487e+00	2.780824e+04	1.111248e+04	3.000902e+02	4.472551e-03	5.897153e-02	1.846343e-05	0.000000e+00	0.000000e+00	0.000000e+00	0.000000e+00	
1.005846e+00	1.011427e-03	1.289701e-01	-6.050938e-01	1.080284e+00	2.778151e+04	1.111023e+04	3.000987e+02	-1.702383e-02	2.764538e-02	1.846383e-05	0.000000e+00	0.000000e+00	0.000000e+00	0.000000e+00	
1.005261e+00	1.778638e-03	1.288855e-01	-2.457047e-01	1.057380e+00	2.775897e+04	1.110176e+04	3.000669e+02	-9.789431e-02	2.425428e-02	1.846233e-05	0.000000e+00	0.000000e+00	0.000000e+00	0.000000e+00	
1.003554e+00	2.065375e-03	1.287025e-01	2.537524e+00	2.604733e+00	2.773364e+04	1.107291e+04	2.997126e+02	-3.735729e-01	8.141183e-02	1.844556e-05	0.000000e+00	0.000000e+00	0.000000e+00	0.000000e+00	
1.004548e+00	2.459387e-03	1.289749e-01	2.123625e+00	2.083258e+00	2.778718e+04	1.110115e+04	2.998425e+02	-1.037572e-01	6.644541e-02	1.845171e-05	0.000000e+00	0.000000e+00	0.000000e+00	0.000000e+00	
1.002118e+00	2.024980e-03	1.305708e-01	7.272976e+00	7.775865e+00	2.826320e+04	1.113164e+04	2.969911e+02	1.875986e-01	2.360281e-01	1.831644e-05	0.000000e+00	0.000000e+00	0.000000e+00	0.000000e+00	
1.002887e+00	2.562651e-03	1.308542e-01	6.878478e+00	6.554178e+00	2.829777e+04	1.118113e+04	2.976654e+02	6.604567e-01	2.099291e-01	1.834849e-05	0.000000e+00	0.000000e+00	0.000000e+00	0.000000e+00	
1.001674e+00	1.575405e-03	1.318760e-01	7.354230e+00	9.100149e+00	2.857217e+04	1.122125e+04	2.964190e+02	1.043761e+00	2.570574e-01	1.828922e-05	0.000000e+00	0.000000e+00	0.000000e+00	0.000000e+00	
1.001204e+00	1.345502e-03	1.312971e-01	7.706105e+00	1.029061e+01	2.848140e+04	1.114080e+04	2.955912e+02	2.750469e-01	2.840936e-01	1.824980e-05	0.000000e+00	0.000000e+00	0.000000e+00	0.000000e+00	
1.000847e+00	-1.986417e-04	1.249906e-01	-1.805133e-01	2.755383e+00	2.693242e+04	1.076077e+04	2.999137e+02	-3.355820e+00	6.363379e-02	1.845508e-05	0.000000e+00	0.000000e+00	0.000000e+00	0.000000e+00	
1.000593e+00	-3.594757e-04	1.263036e-01	-2.654128e+00	4.124004e+00	2.722568e+04	1.085219e+04	2.993174e+02	-2.482361e+00	1.119550e-01	1.842685e-05	0.000000e+00	0.000000e+00	0.000000e+00	0.000000e+00	
1.001126e+00	8.643236e-04	1.326797e-01	6.724166e+00	9.987732e+00	2.874866e+04	1.128094e+04	2.961905e+02	1.613989e+00	2.630262e-01	1.827835e-05	0.000000e+00	0.000000e+00	0.000000e+00	0.000000e+00	
1.001139e+00	3.322862e-04	1.326774e-01	4.503234e+00	7.236010e+00	2.866091e+04	1.135487e+04	2.981367e+02	2.320323e+00	1.855800e-01	1.837086e-05	0.000000e+00	0.000000e+00	0.000000e+00	0.000000e+00	
1.000843e+00	1.515775e-04	1.303648e-01	7.651724e+00	8.931033e+00	2.823353e+04	1.108122e+04	2.961131e+02	-2.941380e-01	2.615124e-01	1.827466e-05	0.000000e+00	0.000000e+00	0.000000e+00	0.000000e+00	
1.000364e+00	-3.374818e-04	1.243148e-01	4.651922e+00	1.633617e+01	2.709456e+04	1.037366e+04	2.906964e+02	-7.054269e+00	3.997509e-01	1.801558e-05	0.000000e+00	0.000000e+00	0.000000e+00	0.000000e+00	
1.000000e+00	0.000000e+00	2.420754e-01	1.936747e+01	1.029346e+02	5.858316e+04	1.436945e+04	2.067854e+02	3.112223e+01	1.500916e+00	1.366797e-05	0.000000e+00	0.000000e+00	0.000000e+00	0.000000e+00	
7.844663e-04	-6.516742e-02	1.252113e-01	3.899913e+00	-1.090708e+01	2.717247e+04	1.065467e+04	2.964331e+02	-4.369468e+00	2.680265e-01	1.828990e-05	0.000000e+00	0.000000e+00	0.000000e+00	0.000000e+00	
7.917903e-03	-7.061633e-02	1.246217e-01	4.676948e+00	-1.117059e+01	2.705628e+04	1.058715e+04	2.959481e+02	-5.014578e+00	2.817731e-01	1.826681e-05	0.000000e+00	0.000000e+00	0.000000e+00	0.000000e+00	
1.006240e-02	-7.545537e-02	1.244992e-01	5.200907e+00	-1.109103e+01	2.703344e+04	1.057231e+04	2.958243e+02	-5.156324e+00	2.853650e-01	1.826091e-05	0.000000e+00	0.000000e+00	0.000000e+00	0.000000e+00	
1.251909e-02	-8.042454e-02	1.243766e-01	5.729199e+00	-1.098832e+01	2.701072e+04	1.055735e+04	2.956969e+02	-5.299286e+00	2.890268e-01	1.825483e-05	0.000000e+00	0.000000e+00	0.000000e+00	0.000000e+00	
1.529738e-02	-8.549123e-02	1.242506e-01	6.266031e+00	-1.084864e+01	2.698716e+04	1.054222e+04	2.955725e+02	-5.443854e+00	2.925566e-01	1.824891e-05	0.000000e+00	0.000000e+00	0.000000e+00	0.000000e+00	
1.843145e-02	-9.065497e-02	1.241346e-01	6.804288e+00	-1.065838e+01	2.696526e+04	1.052848e+04	2.954630e+02	-5.575102e+00	2.956174e-01	1.824369e-05	0.000000e+00	0.000000e+00	0.000000e+00	0.000000e+00	
2.196161e-02	-9.592334e-02	1.240421e-01	7.323321e+00	-1.042027e+01	2.694766e+04	1.051752e+04	2.953756e+02	-5.679845e+00	2.980146e-01	1.823952e-05	0.000000e+00	0.000000e+00	0.000000e+00	0.000000e+00	
2.590787e-02	-1.012858e-01	1.239742e-01	7.818697e+00	-1.015565e+01	2.693507e+04	1.050902e+04	2.952986e+02	-5.761008e+00	3.001008e-01	1.823585e-05	0.000000e+00	0.000000e+00	0.000000e+00	0.000000e+00	
3.032086e-02	-1.067744e-01	1.239072e-01	8.299744e+00	-9.868859e+00	2.692264e+04	1.050066e+04	2.952231e+02	-5.840924e+00	3.021340e-01	1.823225e-05	0.000000e+00	0.000000e+00	0.000000e+00	0.000000e+00	
3.519676e-02	-1.123240e-01	1.238373e-01	8.772939e+00	-9.544718e+00	2.690933e+04	1.049230e+04	2.951546e+02	-5.920764e+00	3.039589e-01	1.822898e-05	0.000000e+00	0.000000e+00	0.000000e+00	0.000000e+00	
4.055945e-02	-1.179061e-01	1.237852e-01	9.226699e+00	-9.179283e+00	2.689932e+04	1.048604e+04	2.951027e+02	-5.980579e+00	3.053101e-01	1.822651e-05	0.000000e+00	0.000000e+00	0.000000e+00	0.000000e+00	
4.640551e-02	-1.234684e-01	1.237538e-01	9.651103e+00	-8.777692e+00	2.689314e+04	1.048221e+04	2.950697e+02	-6.017223e+00	3.061255e-01	1.822493e-05	0.000000e+00	0.000000e+00	0.000000e+00	0.000000e+00	
5.272092e-02	-1.289601e-01	1.237432e-01	1.003721e+01	-8.343523e+00	2.689073e+04	1.048095e+04	2.950594e+02	-6.029256e+00	3.063083e-01	1.822444e-05	0.000000e+00	0.000000e+00	0.000000e+00	0.000000e+00	