TITLE = "Visualization of the surface solution"
VARIABLES = "x""y""Conservative_1""Conservative_2""Conservative_3""Conservative_4""Pressure""Temperature""C<sub>p</sub>""Mach""<greek>m</greek>""C<sub>f</sub>_x""C<sub>f</sub>_y""h""y<sup>+</sup>"
ZONE NODES= 200, ELEMENTS= 200, DATAPACKING=POINT, ZONETYPE=FELINESEG
3.124498e-03	-5.679091e-02	1.248991e-01	3.216331e+00	-1.128325e+01	2.710667e+04	1.062224e+04	2.962696e+02	-4.679344e+00	2.722368e-01	1.828211e-05	0.000000e+00	0.000000e+00	0.000000e+00	0.000000e+00	
2.537646e-03	-5.455670e-02	1.248774e-01	2.839823e+00	-1.139271e+01	2.710264e+04	1.062027e+04	2.962661e+02	-4.698192e+00	2.724854e-01	1.828195e-05	0.000000e+00	0.000000e+00	0.000000e+00	0.000000e+00	
2.003081e-03	-5.231476e-02	1.251151e-01	2.442811e+00	-1.137624e+01	2.715162e+04	1.064423e+04	2.963704e+02	-4.469233e+00	2.694704e-01	1.828691e-05	0.000000e+00	0.000000e+00	0.000000e+00	0.000000e+00	
9.997621e-01	-1.104660e-03	1.310121e-01	7.250975e+00	2.288432e+00	2.828302e+04	1.122495e+04	2.984720e+02	1.079104e+00	1.675726e-01	1.838677e-05	0.000000e+00	0.000000e+00	0.000000e+00	0.000000e+00	
1.000000e+00	-1.000000e-03	1.133524e-01	-1.503667e+00	6.112282e+00	2.446344e+04	9.715469e+03	2.985818e+02	-1.334278e+01	1.603066e-01	1.839198e-05	0.000000e+00	0.000000e+00	0.000000e+00	0.000000e+00	
4.487486e-03	-6.135459e-02	1.249276e-01	3.625684e+00	-1.125559e+01	2.711497e+04	1.062212e+04	2.961987e+02	-4.680448e+00	2.743514e-01	1.827874e-05	0.000000e+00	0.000000e+00	0.000000e+00	0.000000e+00	
6.075662e-03	-6.594099e-02	1.247143e-01	4.161742e+00	-1.123216e+01	2.707295e+04	1.059908e+04	2.960619e+02	-4.900577e+00	2.784465e-01	1.827222e-05	0.000000e+00	0.000000e+00	0.000000e+00	0.000000e+00	
1.078855e-03	-4.769375e-02	1.251468e-01	1.952435e+00	-1.131065e+01	2.715516e+04	1.065152e+04	2.964984e+02	-4.399542e+00	2.656953e-01	1.829300e-05	0.000000e+00	0.000000e+00	0.000000e+00	0.000000e+00	
9.990485e-01	-1.418574e-03	1.277431e-01	4.636874e+00	2.266972e+00	2.755223e+04	1.097918e+04	2.994077e+02	-1.269020e+00	1.164789e-01	1.843112e-05	0.000000e+00	0.000000e+00	0.000000e+00	0.000000e+00	
1.000000e+00	0.000000e+00	2.420754e-01	1.936747e+01	1.029346e+02	5.858316e+04	1.436945e+04	2.067854e+02	3.112223e+01	1.500916e+00	1.366797e-05	0.000000e+00	0.000000e+00	0.000000e+00	0.000000e+00	
7.917903e-03	-7.061633e-02	1.246217e-01	4.676948e+00	-1.117059e+01	2.705628e+04	1.058715e+04	2.959481e+02	-5.014578e+00	2.817731e-01	1.826681e-05	0.000000e+00	0.000000e+00	0.000000e+00	0.000000e+00	
1.006240e-02	-7.545537e-02	1.244992e-01	5.200907e+00	-1.109103e+01	2.703344e+04	1.057231e+04	2.958243e+02	-5.156324e+00	2.853650e-01	1.826091e-05	0.000000e+00	0.000000e+00	0.000000e+00	0.000000e+00	
1.251909e-02	-8.042454e-02	1.243766e-01	5.729199e+00	-1.098832e+01	2.701072e+04	1.055735e+04	2.956969e+02	-5.299286e+00	2.890268e-01	1.825483e-05	0.000000e+00	0.000000e+00	0.000000e+00	0.000000e+00	
1.529738e-02	-8.549123e-02	1.242506e-01	6.266031e+00	-1.084864e+01	2.698716e+04	1.054222e+04	2.955725e+02	-5.443854e+00	2.925566e-01	1.824891e-05	0.000000e+00	0.000000e+00	0.000000e+00	0.000000e+00	
1.843145e-02	-9.065497e-02	1.241346e-01	6.804288e+00	-1.065838e+01	2.696526e+04	1.052848e+04	2.954630e+02	-5.575102e+00	2.956174e-01	1.824369e-05	0.000000e+00	0.000000e+00	0.000000e+00	0.000000e+00	
2.196161e-02	-9.592334e-02	1.240421e-01	7.323321e+00	-1.042027e+01	2.694766e+04	1.051752e+04	2.953756e+02	-5.679845e+00	2.980146e-01	1.823952e-05	0.000000e+00	0.000000e+00	0.000000e+00	0.000000e+00	
2.590787e-02	-1.012858e-01	1.239742e-01	7.818697e+00	-1.015565e+01	2.693507e+04	1.050902e+04	2.952986e+02	-5.761008e+00	3.001008e-01	1.823585e-05	0.000000e+00	0.000000e+00	0.000000e+00	0.000000e+00	
3.032086e-02	-1.067744e-01	1.239072e-01	8.299744e+00	-9.868859e+00	2.692264e+04	1.050066e+04	2.952231e+02	-5.840924e+00	3.021340e-01	1.823225e-05	0.000000e+00	0.000000e+00	0.000000e+00	0.000000e+00	
3.519676e-02	-1.123240e-01	1.238373e-01	8.772939e+00	-9.544718e+00	2.690933e+04	1.049230e+04	2.951546e+02	-5.920764e+00	3.039589e-01	1.822898e-05	0.000000e+00	0.000000e+00	0.000000e+00	0.000000e+00	
4.055945e-02	-1.179061e-01	1.237852e-01	9.226699e+00	-9.179283e+00	2.689932e+04	1.048604e+04	2.951027e+02	-5.980579e+00	3.053101e-01	1.822651e-05	0.000000e+00	0.000000e+00	0.000000e+00	0.000000e+00	
4.640551e-02	-1.234684e-01	1.237538e-01	9.651103e+00	-8.777692e+00	2.689314e+04	1.048221e+04	2.950697e+02	-6.017223e+00	3.061255e-01	1.822493e-05	0.000000e+00	0.000000e+00	0.000000e+00	0.000000e+00	
5.272092e-02	-1.289601e-01	1.237432e-01	1.003721e+01	-8.343523e+00	2.689073e+04	1.048095e+04	2.950594e+02	-6.029256e+00	3.063083e-01	1.822444e-05	0.000000e+00	0.000000e+00	0.000000e+00	0.000000e+00	
5.950360e-02	-1.343488e-01	1.237575e-01	1.038006e+01	-7.882764e+00	2.689289e+04	1.048261e+04	2.950723e+02	-6.013337e+00	3.058379e-01	1.822506e-05	0.000000e+00	0.000000e+00	0.000000e+00	0.000000e+00	
4.060150e-04	-4.303601e-02	1.252261e-01	1.263573e+00	-1.137219e+01	2.717189e+04	1.065966e+04	2.965369e+02	-4.321840e+00	2.646826e-01	1.829484e-05	0.000000e+00	0.000000e+00	0.000000e+00	0.000000e+00	
6.675311e-02	-1.396087e-01	1.237958e-01	1.067396e+01	-7.404313e+00	2.689947e+04	1.048715e+04	2.951086e+02	-5.970013e+00	3.047093e-01	1.822679e-05	0.000000e+00	0.000000e+00	0.000000e+00	0.000000e+00	
9.978687e-01	-1.936725e-03	1.288757e-01	4.006596e+00	1.797542e+00	2.779173e+04	1.108677e+04	2.996844e+02	-2.411679e-01	9.818525e-02	1.844422e-05	0.000000e+00	0.000000e+00	0.000000e+00	0.000000e+00	
9.999629e-01	-1.365582e-05	1.790494e-01	8.314233e+00	-2.510364e+01	3.910722e+04	1.486174e+04	2.891527e+02	3.582566e+01	4.332637e-01	1.794131e-05	0.000000e+00	0.000000e+00	0.000000e+00	0.000000e+00	
3.518009e-05	-3.841913e-02	1.249446e-01	4.415636e-01	-1.149945e+01	2.711380e+04	1.063353e+04	2.964767e+02	-4.571425e+00	2.668305e-01	1.829197e-05	0.000000e+00	0.000000e+00	0.000000e+00	0.000000e+00	
7.446654e-02	-1.447217e-01	1.238590e-01	1.091799e+01	-6.923622e+00	2.691083e+04	1.049444e+04	2.951632e+02	-5.900304e+00	3.030620e-01	1.822939e-05	0.000000e+00	0.000000e+00	0.000000e+00	0.000000e+00	
9.962132e-01	-2.660190e-03	1.287703e-01	3.537898e+00	1.561302e+00	2.776683e+04	1.108351e+04	2.998416e+02	-2.722989e-01	8.651150e-02	1.845167e-05	0.000000e+00	0.000000e+00	0.000000e+00	0.000000e+00	
9.987533e-01	-4.586927e-04	1.268807e-01	3.649761e+00	1.804127e+00	2.741838e+04	1.094122e+04	3.004006e+02	-1.631704e+00	9.235073e-02	1.847811e-05	0.000000e+00	0.000000e+00	0.000000e+00	0.000000e+00	
6.353361e-05	-3.460058e-02	1.251093e-01	-8.898725e-01	-1.145028e+01	2.714933e+04	1.064887e+04	2.965136e+02	-4.424849e+00	2.659273e-01	1.829372e-05	0.000000e+00	0.000000e+00	0.000000e+00	0.000000e+00	
8.264737e-02	-1.496816e-01	1.239351e-01	1.111851e+01	-6.447113e+00	2.692457e+04	1.050326e+04	2.952297e+02	-5.816078e+00	3.010676e-01	1.823257e-05	0.000000e+00	0.000000e+00	0.000000e+00	0.000000e+00	
9.940823e-01	-3.581688e-03	1.288895e-01	3.429188e+00	1.471661e+00	2.779375e+04	1.109589e+04	2.998991e+02	-1.539738e-01	8.339607e-02	1.845439e-05	0.000000e+00	0.000000e+00	0.000000e+00	0.000000e+00	
9.970564e-01	-1.079270e-03	1.305373e-01	2.465203e+00	9.060305e-01	2.819672e+04	1.126812e+04	3.007096e+02	1.491529e+00	5.787731e-02	1.849272e-05	0.000000e+00	0.000000e+00	0.000000e+00	0.000000e+00	
6.108891e-04	-3.058256e-02	1.256200e-01	-2.220916e+00	-1.081075e+01	2.724834e+04	1.070541e+04	2.968758e+02	-3.884716e+00	2.543532e-01	1.831096e-05	0.000000e+00	0.000000e+00	0.000000e+00	0.000000e+00	
1.772811e-03	-2.619188e-02	1.262165e-01	-3.273982e+00	-9.744113e+00	2.735907e+04	1.077619e+04	2.974264e+02	-3.208434e+00	2.355669e-01	1.833713e-05	0.000000e+00	0.000000e+00	0.000000e+00	0.000000e+00	
9.127835e-02	-1.544642e-01	1.240180e-01	1.128163e+01	-5.976054e+00	2.693951e+04	1.051296e+04	2.953048e+02	-5.723431e+00	2.988199e-01	1.823615e-05	0.000000e+00	0.000000e+00	0.000000e+00	0.000000e+00	
1.003586e-01	-1.590583e-01	1.241102e-01	1.140986e+01	-5.515246e+00	2.695623e+04	1.052368e+04	2.953866e+02	-5.620938e+00	2.963637e-01	1.824005e-05	0.000000e+00	0.000000e+00	0.000000e+00	0.000000e+00	
9.914854e-01	-4.684299e-03	1.289174e-01	3.429921e+00	1.436589e+00	2.780210e+04	1.109939e+04	2.999285e+02	-1.205849e-01	8.308309e-02	1.845578e-05	0.000000e+00	0.000000e+00	0.000000e+00	0.000000e+00	
9.948726e-01	-1.862636e-03	1.293644e-01	3.206761e+00	1.444883e+00	2.794899e+04	1.116047e+04	3.005371e+02	4.630113e-01	7.823297e-02	1.848457e-05	0.000000e+00	0.000000e+00	0.000000e+00	0.000000e+00	
9.884322e-01	-5.946452e-03	1.289397e-01	3.491559e+00	1.416191e+00	2.780976e+04	1.110188e+04	2.999440e+02	-9.673763e-02	8.416590e-02	1.845651e-05	0.000000e+00	0.000000e+00	0.000000e+00	0.000000e+00	
9.849038e-01	-7.356605e-03	1.289510e-01	3.570675e+00	1.397243e+00	2.781502e+04	1.110321e+04	2.999536e+02	-8.408717e-02	8.564219e-02	1.845696e-05	0.000000e+00	0.000000e+00	0.000000e+00	0.000000e+00	
9.809289e-01	-8.888228e-03	1.289604e-01	3.645590e+00	1.378213e+00	2.781956e+04	1.110427e+04	2.999603e+02	-7.396933e-02	8.704401e-02	1.845729e-05	0.000000e+00	0.000000e+00	0.000000e+00	0.000000e+00	
3.645682e-03	-2.153435e-02	1.268869e-01	-4.067416e+00	-8.432073e+00	2.748379e+04	1.085537e+04	2.980289e+02	-2.451929e+00	2.131894e-01	1.836575e-05	0.000000e+00	0.000000e+00	0.000000e+00	0.000000e+00	
1.098763e-01	-1.634489e-01	1.242046e-01	1.151059e+01	-5.062870e+00	2.697337e+04	1.053472e+04	2.954715e+02	-5.515472e+00	2.938040e-01	1.824410e-05	0.000000e+00	0.000000e+00	0.000000e+00	0.000000e+00	
9.922119e-01	-2.780362e-03	1.296666e-01	3.248595e+00	1.048498e+00	2.801350e+04	1.118743e+04	3.005607e+02	7.205672e-01	7.574787e-02	1.848568e-05	0.000000e+00	0.000000e+00	0.000000e+00	0.000000e+00	
9.764884e-01	-1.054404e-02	1.289695e-01	3.706596e+00	1.363950e+00	2.782362e+04	1.110526e+04	2.999660e+02	-6.448402e-02	8.820222e-02	1.845755e-05	0.000000e+00	0.000000e+00	0.000000e+00	0.000000e+00	
9.716110e-01	-1.232300e-02	1.289777e-01	3.751802e+00	1.361587e+00	2.782713e+04	1.110615e+04	2.999710e+02	-5.596587e-02	8.912590e-02	1.845779e-05	0.000000e+00	0.000000e+00	0.000000e+00	0.000000e+00	
6.317071e-03	-1.676789e-02	1.275108e-01	-4.587685e+00	-6.967926e+00	2.759874e+04	1.093033e+04	2.986185e+02	-1.735763e+00	1.888630e-01	1.839372e-05	0.000000e+00	0.000000e+00	0.000000e+00	0.000000e+00	
1.198146e-01	-1.676111e-01	1.243017e-01	1.158587e+01	-4.614067e+00	2.699090e+04	1.054613e+04	2.955606e+02	-5.406504e+00	2.911031e-01	1.824834e-05	0.000000e+00	0.000000e+00	0.000000e+00	0.000000e+00	
1.301865e-01	-1.715319e-01	1.244068e-01	1.163080e+01	-4.167321e+00	2.700990e+04	1.055857e+04	2.956590e+02	-5.287669e+00	2.881034e-01	1.825303e-05	0.000000e+00	0.000000e+00	0.000000e+00	0.000000e+00	
9.662775e-01	-1.425468e-02	1.289830e-01	3.786786e+00	1.375784e+00	2.782978e+04	1.110674e+04	2.999745e+02	-5.031327e-02	8.996413e-02	1.845796e-05	0.000000e+00	0.000000e+00	0.000000e+00	0.000000e+00	
1.409639e-01	-1.751846e-01	1.245227e-01	1.164607e+01	-3.727964e+00	2.703093e+04	1.057221e+04	2.957655e+02	-5.157315e+00	2.848334e-01	1.825810e-05	0.000000e+00	0.000000e+00	0.000000e+00	0.000000e+00	
1.521370e-01	-1.785530e-01	1.246467e-01	1.162711e+01	-3.296270e+00	2.705331e+04	1.058697e+04	2.958839e+02	-5.016288e+00	2.811695e-01	1.826375e-05	0.000000e+00	0.000000e+00	0.000000e+00	0.000000e+00	
1.637051e-01	-1.816272e-01	1.247834e-01	1.157867e+01	-2.881153e+00	2.707818e+04	1.060309e+04	2.960098e+02	-4.862297e+00	2.772334e-01	1.826974e-05	0.000000e+00	0.000000e+00	0.000000e+00	0.000000e+00	
1.756580e-01	-1.844007e-01	1.249250e-01	1.150033e+01	-2.485454e+00	2.710386e+04	1.061992e+04	2.961433e+02	-4.701522e+00	2.730070e-01	1.827610e-05	0.000000e+00	0.000000e+00	0.000000e+00	0.000000e+00	
9.605069e-01	-1.636110e-02	1.289838e-01	3.820311e+00	1.406804e+00	2.783130e+04	1.110682e+04	2.999750e+02	-4.953742e-02	9.090454e-02	1.845798e-05	0.000000e+00	0.000000e+00	0.000000e+00	0.000000e+00	
1.879741e-01	-1.868687e-01	1.250723e-01	1.140096e+01	-2.115684e+00	2.713072e+04	1.063728e+04	2.962782e+02	-4.535641e+00	2.686789e-01	1.828252e-05	0.000000e+00	0.000000e+00	0.000000e+00	0.000000e+00	
2.006410e-01	-1.890330e-01	1.252170e-01	1.128444e+01	-1.771182e+00	2.715703e+04	1.065441e+04	2.964126e+02	-4.371942e+00	2.643044e-01	1.828892e-05	0.000000e+00	0.000000e+00	0.000000e+00	0.000000e+00	
2.136354e-01	-1.908941e-01	1.253584e-01	1.115907e+01	-1.449418e+00	2.718282e+04	1.067111e+04	2.965421e+02	-4.212440e+00	2.600250e-01	1.829508e-05	0.000000e+00	0.000000e+00	0.000000e+00	0.000000e+00	
2.269565e-01	-1.924474e-01	1.254923e-01	1.102246e+01	-1.142438e+00	2.720703e+04	1.068710e+04	2.966698e+02	-4.059610e+00	2.557387e-01	1.830116e-05	0.000000e+00	0.000000e+00	0.000000e+00	0.000000e+00	
2.405831e-01	-1.936846e-01	1.256271e-01	1.087635e+01	-8.514529e-01	2.723152e+04	1.070313e+04	2.967958e+02	-3.906512e+00	2.514484e-01	1.830715e-05	0.000000e+00	0.000000e+00	0.000000e+00	0.000000e+00	
2.545034e-01	-1.946002e-01	1.257589e-01	1.071837e+01	-5.747225e-01	2.725535e+04	1.071891e+04	2.969219e+02	-3.755711e+00	2.470833e-01	1.831315e-05	0.000000e+00	0.000000e+00	0.000000e+00	0.000000e+00	
2.687049e-01	-1.951900e-01	1.258921e-01	1.055182e+01	-3.145128e-01	2.727953e+04	1.073477e+04	2.970466e+02	-3.604163e+00	2.426949e-01	1.831908e-05	0.000000e+00	0.000000e+00	0.000000e+00	0.000000e+00	
2.831543e-01	-1.954509e-01	1.260225e-01	1.037488e+01	-6.935141e-02	2.730309e+04	1.075040e+04	2.971715e+02	-3.454827e+00	2.382277e-01	1.832502e-05	0.000000e+00	0.000000e+00	0.000000e+00	0.000000e+00	
2.978479e-01	-1.953823e-01	1.261539e-01	1.018992e+01	1.590938e-01	2.732691e+04	1.076611e+04	2.972956e+02	-3.304766e+00	2.337115e-01	1.833092e-05	0.000000e+00	0.000000e+00	0.000000e+00	0.000000e+00	
3.127718e-01	-1.949851e-01	1.262833e-01	9.996102e+00	3.704624e-01	2.735030e+04	1.078165e+04	2.974197e+02	-3.156257e+00	2.291126e-01	1.833681e-05	0.000000e+00	0.000000e+00	0.000000e+00	0.000000e+00	
3.278929e-01	-1.942667e-01	1.264131e-01	9.797526e+00	5.620162e-01	2.737385e+04	1.079717e+04	2.975419e+02	-3.007995e+00	2.244991e-01	1.834262e-05	0.000000e+00	0.000000e+00	0.000000e+00	0.000000e+00	
3.431989e-01	-1.932373e-01	1.265390e-01	9.595850e+00	7.344306e-01	2.739664e+04	1.081227e+04	2.976615e+02	-2.863779e+00	2.198959e-01	1.834830e-05	0.000000e+00	0.000000e+00	0.000000e+00	0.000000e+00	
3.586875e-01	-1.919080e-01	1.266620e-01	9.394001e+00	8.878857e-01	2.741894e+04	1.082699e+04	2.977774e+02	-2.723136e+00	2.153480e-01	1.835380e-05	0.000000e+00	0.000000e+00	0.000000e+00	0.000000e+00	
3.743255e-01	-1.902938e-01	1.267795e-01	9.194494e+00	1.023610e+00	2.744022e+04	1.084107e+04	2.978885e+02	-2.588560e+00	2.109007e-01	1.835908e-05	0.000000e+00	0.000000e+00	0.000000e+00	0.000000e+00	
3.900895e-01	-1.884113e-01	1.268915e-01	8.999517e+00	1.142472e+00	2.746054e+04	1.085450e+04	2.979942e+02	-2.460243e+00	2.065882e-01	1.836410e-05	0.000000e+00	0.000000e+00	0.000000e+00	0.000000e+00	
9.542990e-01	-1.866846e-02	1.289788e-01	3.860769e+00	1.450656e+00	2.783157e+04	1.110625e+04	2.999713e+02	-5.497757e-02	9.209679e-02	1.845780e-05	0.000000e+00	0.000000e+00	0.000000e+00	0.000000e+00	
9.476630e-01	-2.118909e-02	1.289679e-01	3.913852e+00	1.500895e+00	2.783060e+04	1.110499e+04	2.999626e+02	-6.703075e-02	9.361241e-02	1.845739e-05	0.000000e+00	0.000000e+00	0.000000e+00	0.000000e+00	
4.059766e-01	-1.862757e-01	1.269967e-01	8.812209e+00	1.247604e+00	2.747963e+04	1.086711e+04	2.980931e+02	-2.339820e+00	2.024776e-01	1.836879e-05	0.000000e+00	0.000000e+00	0.000000e+00	0.000000e+00	
4.219629e-01	-1.838988e-01	1.270939e-01	8.631784e+00	1.344576e+00	2.749724e+04	1.087880e+04	2.981856e+02	-2.228078e+00	1.985590e-01	1.837318e-05	0.000000e+00	0.000000e+00	0.000000e+00	0.000000e+00	
9.406073e-01	-2.392061e-02	1.289522e-01	3.981174e+00	1.550440e+00	2.782866e+04	1.110315e+04	2.999493e+02	-8.460327e-02	9.542734e-02	1.845676e-05	0.000000e+00	0.000000e+00	0.000000e+00	0.000000e+00	
4.380248e-01	-1.812836e-01	1.271855e-01	8.456175e+00	1.436471e+00	2.751380e+04	1.088983e+04	2.982731e+02	-2.122701e+00	1.947861e-01	1.837733e-05	0.000000e+00	0.000000e+00	0.000000e+00	0.000000e+00	
4.541381e-01	-1.784334e-01	1.272736e-01	8.282600e+00	1.523289e+00	2.752975e+04	1.090045e+04	2.983572e+02	-2.021255e+00	1.910886e-01	1.838133e-05	0.000000e+00	0.000000e+00	0.000000e+00	0.000000e+00	
9.331391e-01	-2.684707e-02	1.289334e-01	4.060394e+00	1.594121e+00	2.782605e+04	1.110091e+04	2.999324e+02	-1.060705e-01	9.744754e-02	1.845596e-05	0.000000e+00	0.000000e+00	0.000000e+00	0.000000e+00	
9.252459e-01	-2.995367e-02	1.289127e-01	4.147014e+00	1.629656e+00	2.782304e+04	1.109842e+04	2.999133e+02	-1.298578e-01	9.955802e-02	1.845506e-05	0.000000e+00	0.000000e+00	0.000000e+00	0.000000e+00	
4.702995e-01	-1.753480e-01	1.273592e-01	8.109655e+00	1.604955e+00	2.754524e+04	1.091077e+04	2.984391e+02	-1.922619e+00	1.874296e-01	1.838521e-05	0.000000e+00	0.000000e+00	0.000000e+00	0.000000e+00	
4.864747e-01	-1.720336e-01	1.274427e-01	7.935780e+00	1.681648e+00	2.756036e+04	1.092087e+04	2.985194e+02	-1.826132e+00	1.837713e-01	1.838902e-05	0.000000e+00	0.000000e+00	0.000000e+00	0.000000e+00	
5.026498e-01	-1.684933e-01	1.275253e-01	7.759928e+00	1.752111e+00	2.757528e+04	1.093086e+04	2.985989e+02	-1.730728e+00	1.800801e-01	1.839279e-05	0.000000e+00	0.000000e+00	0.000000e+00	0.000000e+00	
5.188115e-01	-1.647344e-01	1.276079e-01	7.582639e+00	1.812678e+00	2.759024e+04	1.094083e+04	2.986779e+02	-1.635444e+00	1.763438e-01	1.839654e-05	0.000000e+00	0.000000e+00	0.000000e+00	0.000000e+00	
9.169520e-01	-3.321030e-02	1.288911e-01	4.236526e+00	1.656818e+00	2.781981e+04	1.109581e+04	2.998931e+02	-1.547077e-01	1.016620e-01	1.845410e-05	0.000000e+00	0.000000e+00	0.000000e+00	0.000000e+00	
9.082432e-01	-3.660515e-02	1.288694e-01	4.325687e+00	1.676809e+00	2.781646e+04	1.109318e+04	2.998726e+02	-1.798650e-01	1.037020e-01	1.845313e-05	0.000000e+00	0.000000e+00	0.000000e+00	0.000000e+00	
8.991326e-01	-4.011950e-02	1.288487e-01	4.411769e+00	1.691166e+00	2.781327e+04	1.109066e+04	2.998525e+02	-2.039879e-01	1.056333e-01	1.845218e-05	0.000000e+00	0.000000e+00	0.000000e+00	0.000000e+00	
8.896241e-01	-4.374392e-02	1.288288e-01	4.492970e+00	1.703330e+00	2.781015e+04	1.108822e+04	2.998329e+02	-2.272838e-01	1.074467e-01	1.845125e-05	0.000000e+00	0.000000e+00	0.000000e+00	0.000000e+00	
5.349280e-01	-1.607807e-01	1.276898e-01	7.406926e+00	1.861463e+00	2.760512e+04	1.095069e+04	2.987552e+02	-1.541260e+00	1.726133e-01	1.840020e-05	0.000000e+00	0.000000e+00	0.000000e+00	0.000000e+00	
5.509981e-01	-1.566502e-01	1.277688e-01	7.235120e+00	1.899243e+00	2.761946e+04	1.096020e+04	2.988299e+02	-1.450402e+00	1.689391e-01	1.840374e-05	0.000000e+00	0.000000e+00	0.000000e+00	0.000000e+00	
8.797148e-01	-4.748208e-02	1.288084e-01	4.569728e+00	1.716522e+00	2.780687e+04	1.108575e+04	2.998136e+02	-2.508603e-01	1.091775e-01	1.845034e-05	0.000000e+00	0.000000e+00	0.000000e+00	0.000000e+00	
8.694220e-01	-5.133250e-02	1.287874e-01	4.644382e+00	1.731530e+00	2.780342e+04	1.108322e+04	2.997939e+02	-2.750775e-01	1.108806e-01	1.844941e-05	0.000000e+00	0.000000e+00	0.000000e+00	0.000000e+00	
8.587630e-01	-5.529300e-02	1.287654e-01	4.718833e+00	1.748539e+00	2.779973e+04	1.108056e+04	2.997732e+02	-3.004843e-01	1.125974e-01	1.844843e-05	0.000000e+00	0.000000e+00	0.000000e+00	0.000000e+00	
5.669903e-01	-1.523693e-01	1.278443e-01	7.068441e+00	1.927270e+00	2.763319e+04	1.096930e+04	2.989015e+02	-1.363406e+00	1.653487e-01	1.840714e-05	0.000000e+00	0.000000e+00	0.000000e+00	0.000000e+00	
5.829036e-01	-1.479564e-01	1.279161e-01	6.908283e+00	1.946726e+00	2.764625e+04	1.097796e+04	2.989694e+02	-1.280735e+00	1.618735e-01	1.841036e-05	0.000000e+00	0.000000e+00	0.000000e+00	0.000000e+00	
5.987068e-01	-1.434381e-01	1.279839e-01	6.756078e+00	1.958798e+00	2.765862e+04	1.098612e+04	2.990332e+02	-1.202708e+00	1.585468e-01	1.841338e-05	0.000000e+00	0.000000e+00	0.000000e+00	0.000000e+00	
6.143888e-01	-1.388342e-01	1.280471e-01	6.611542e+00	1.966210e+00	2.767013e+04	1.099374e+04	2.990929e+02	-1.129978e+00	1.553759e-01	1.841621e-05	0.000000e+00	0.000000e+00	0.000000e+00	0.000000e+00	
6.299284e-01	-1.341596e-01	1.281058e-01	6.473598e+00	1.971152e+00	2.768082e+04	1.100083e+04	2.991488e+02	-1.062170e+00	1.523484e-01	1.841886e-05	0.000000e+00	0.000000e+00	0.000000e+00	0.000000e+00	
6.453142e-01	-1.294241e-01	1.281613e-01	6.340354e+00	1.974002e+00	2.769092e+04	1.100756e+04	2.992019e+02	-9.979531e-01	1.494223e-01	1.842137e-05	0.000000e+00	0.000000e+00	0.000000e+00	0.000000e+00	
6.605349e-01	-1.246371e-01	1.282143e-01	6.211723e+00	1.974825e+00	2.770057e+04	1.101396e+04	2.992522e+02	-9.367906e-01	1.465940e-01	1.842376e-05	0.000000e+00	0.000000e+00	0.000000e+00	0.000000e+00	
6.755695e-01	-1.198116e-01	1.282648e-01	6.086580e+00	1.973552e+00	2.770978e+04	1.102007e+04	2.993004e+02	-8.783573e-01	1.438372e-01	1.842604e-05	0.000000e+00	0.000000e+00	0.000000e+00	0.000000e+00	
8.477169e-01	-5.937420e-02	1.287419e-01	4.794206e+00	1.767043e+00	2.779573e+04	1.107773e+04	2.997514e+02	-3.274555e-01	1.143478e-01	1.844740e-05	0.000000e+00	0.000000e+00	0.000000e+00	0.000000e+00	
6.903975e-01	-1.149605e-01	1.283132e-01	5.965016e+00	1.970394e+00	2.771859e+04	1.102592e+04	2.993464e+02	-8.224632e-01	1.411538e-01	1.842822e-05	0.000000e+00	0.000000e+00	0.000000e+00	0.000000e+00	
7.050083e-01	-1.100935e-01	1.283598e-01	5.846037e+00	1.964708e+00	2.772706e+04	1.103156e+04	2.993907e+02	-7.686089e-01	1.385166e-01	1.843032e-05	0.000000e+00	0.000000e+00	0.000000e+00	0.000000e+00	
8.363209e-01	-6.356352e-02	1.287171e-01	4.871867e+00	1.786956e+00	2.779142e+04	1.107473e+04	2.997279e+02	-3.561898e-01	1.161598e-01	1.844629e-05	0.000000e+00	0.000000e+00	0.000000e+00	0.000000e+00	
8.245836e-01	-6.785776e-02	1.286907e-01	4.951641e+00	1.807768e+00	2.778681e+04	1.107154e+04	2.997030e+02	-3.866395e-01	1.180259e-01	1.844511e-05	0.000000e+00	0.000000e+00	0.000000e+00	0.000000e+00	
8.124942e-01	-7.225982e-02	1.286624e-01	5.034325e+00	1.829396e+00	2.778179e+04	1.106812e+04	2.996764e+02	-4.193262e-01	1.199629e-01	1.844385e-05	0.000000e+00	0.000000e+00	0.000000e+00	0.000000e+00	
8.000812e-01	-7.675773e-02	1.286320e-01	5.120513e+00	1.851565e+00	2.777638e+04	1.106445e+04	2.996479e+02	-4.543392e-01	1.219814e-01	1.844250e-05	0.000000e+00	0.000000e+00	0.000000e+00	0.000000e+00	
7.193922e-01	-1.052218e-01	1.284045e-01	5.730219e+00	1.956356e+00	2.773520e+04	1.103698e+04	2.994334e+02	-7.168641e-01	1.359356e-01	1.843234e-05	0.000000e+00	0.000000e+00	0.000000e+00	0.000000e+00	
7.335207e-01	-1.003660e-01	1.284478e-01	5.618365e+00	1.944388e+00	2.774310e+04	1.104220e+04	2.994742e+02	-6.669043e-01	1.334194e-01	1.843427e-05	0.000000e+00	0.000000e+00	0.000000e+00	0.000000e+00	
7.473954e-01	-9.553576e-02	1.284886e-01	5.510031e+00	1.929952e+00	2.775050e+04	1.104714e+04	2.995131e+02	-6.197155e-01	1.309668e-01	1.843611e-05	0.000000e+00	0.000000e+00	0.000000e+00	0.000000e+00	
7.610077e-01	-9.074408e-02	1.285279e-01	5.406316e+00	1.912984e+00	2.775763e+04	1.105188e+04	2.995498e+02	-5.745039e-01	1.285987e-01	1.843785e-05	0.000000e+00	0.000000e+00	0.000000e+00	0.000000e+00	
7.873537e-01	-8.134551e-02	1.285993e-01	5.210985e+00	1.873448e+00	2.777050e+04	1.106051e+04	2.996173e+02	-4.920074e-01	1.240923e-01	1.844105e-05	0.000000e+00	0.000000e+00	0.000000e+00	0.000000e+00	
7.743298e-01	-8.601011e-02	1.285645e-01	5.306434e+00	1.894007e+00	2.776423e+04	1.105631e+04	2.995845e+02	-5.321528e-01	1.263024e-01	1.843950e-05	0.000000e+00	0.000000e+00	0.000000e+00	0.000000e+00	
9.890844e-01	-3.793289e-03	1.296046e-01	3.338659e+00	1.043456e+00	2.800078e+04	1.118143e+04	3.005435e+02	6.632686e-01	7.765815e-02	1.848487e-05	0.000000e+00	0.000000e+00	0.000000e+00	0.000000e+00	
9.835138e-03	-1.214301e-02	1.281230e-01	-4.837622e+00	-5.387604e+00	2.771236e+04	1.100310e+04	2.991702e+02	-1.040498e+00	1.629859e-01	1.841987e-05	0.000000e+00	0.000000e+00	0.000000e+00	0.000000e+00	
9.854708e-01	-4.867715e-03	1.296077e-01	3.369267e+00	9.473151e-01	2.800124e+04	1.118159e+04	3.005407e+02	6.648432e-01	7.770080e-02	1.848474e-05	0.000000e+00	0.000000e+00	0.000000e+00	0.000000e+00	
1.424138e-02	-7.951346e-03	1.287334e-01	-4.708297e+00	-3.764527e+00	2.782693e+04	1.107432e+04	2.996789e+02	-3.601034e-01	1.349344e-01	1.844397e-05	0.000000e+00	0.000000e+00	0.000000e+00	0.000000e+00	
9.814000e-01	-5.964890e-03	1.295801e-01	3.437786e+00	8.852085e-01	2.799537e+04	1.117870e+04	3.005268e+02	6.371541e-01	7.882980e-02	1.848408e-05	0.000000e+00	0.000000e+00	0.000000e+00	0.000000e+00	
1.948044e-02	-4.432572e-03	1.292263e-01	-4.125302e+00	-2.370554e+00	2.791890e+04	1.113252e+04	3.001050e+02	1.960208e-01	1.060179e-01	1.846413e-05	0.000000e+00	0.000000e+00	0.000000e+00	0.000000e+00	
9.768522e-01	-7.084741e-03	1.295594e-01	3.522780e+00	8.430108e-01	2.799121e+04	1.117623e+04	3.005085e+02	6.136045e-01	8.045100e-02	1.848321e-05	0.000000e+00	0.000000e+00	0.000000e+00	0.000000e+00	
2.546083e-02	-1.510625e-03	1.295167e-01	-3.280061e+00	-1.411553e+00	2.797136e+04	1.116885e+04	3.004092e+02	5.431182e-01	7.934980e-02	1.847852e-05	0.000000e+00	0.000000e+00	0.000000e+00	0.000000e+00	
3.203755e-02	9.380048e-04	1.297020e-01	-2.433878e+00	-7.950562e-01	2.800515e+04	1.119195e+04	3.006002e+02	7.637796e-01	5.679696e-02	1.848755e-05	0.000000e+00	0.000000e+00	0.000000e+00	0.000000e+00	
9.718555e-01	-8.247764e-03	1.295328e-01	3.612669e+00	8.397615e-01	2.798593e+04	1.117313e+04	3.004870e+02	5.839887e-01	8.239749e-02	1.848220e-05	0.000000e+00	0.000000e+00	0.000000e+00	0.000000e+00	
3.916171e-02	2.917607e-03	1.298183e-01	-1.667014e+00	-3.979393e-01	2.802678e+04	1.120619e+04	3.007132e+02	8.998185e-01	3.797630e-02	1.849289e-05	0.000000e+00	0.000000e+00	0.000000e+00	0.000000e+00	
9.663888e-01	-9.515281e-03	1.295115e-01	3.686472e+00	8.758755e-01	2.798178e+04	1.117054e+04	3.004666e+02	5.592377e-01	8.419379e-02	1.848123e-05	0.000000e+00	0.000000e+00	0.000000e+00	0.000000e+00	
9.604691e-01	-1.095129e-02	1.294991e-01	3.727577e+00	9.396572e-01	2.797934e+04	1.116891e+04	3.004515e+02	5.436786e-01	8.542831e-02	1.848052e-05	0.000000e+00	0.000000e+00	0.000000e+00	0.000000e+00	
4.680418e-02	4.420744e-03	1.298775e-01	-9.891908e-01	-1.620789e-01	2.803790e+04	1.121361e+04	3.007753e+02	9.707648e-01	2.219878e-02	1.849582e-05	0.000000e+00	0.000000e+00	0.000000e+00	0.000000e+00	
5.490741e-02	5.459812e-03	1.299032e-01	-4.056873e-01	-4.095164e-02	2.804294e+04	1.121692e+04	3.008044e+02	1.002345e+00	9.027806e-03	1.849720e-05	0.000000e+00	0.000000e+00	0.000000e+00	0.000000e+00	
9.540933e-01	-1.261274e-02	1.294982e-01	3.728019e+00	1.008987e+00	2.797907e+04	1.116859e+04	3.004450e+02	5.406143e-01	8.582894e-02	1.848021e-05	0.000000e+00	0.000000e+00	0.000000e+00	0.000000e+00	
6.343257e-02	6.055918e-03	1.299086e-01	8.726569e-02	3.698992e-03	2.804430e+04	1.121771e+04	3.008130e+02	1.009878e+00	1.933741e-03	1.849761e-05	0.000000e+00	0.000000e+00	0.000000e+00	0.000000e+00	
9.472667e-01	-1.452328e-02	1.295063e-01	3.691534e+00	1.063015e+00	2.798044e+04	1.116939e+04	3.004475e+02	5.481979e-01	8.536524e-02	1.848033e-05	0.000000e+00	0.000000e+00	0.000000e+00	0.000000e+00	
9.399951e-01	-1.667240e-02	1.295202e-01	3.630467e+00	1.090637e+00	2.798280e+04	1.117093e+04	3.004569e+02	5.629547e-01	8.422628e-02	1.848078e-05	0.000000e+00	0.000000e+00	0.000000e+00	0.000000e+00	
7.237286e-02	6.239284e-03	1.299017e-01	4.988617e-01	3.702001e-04	2.804341e+04	1.121698e+04	3.008094e+02	1.002942e+00	1.104513e-02	1.849744e-05	0.000000e+00	0.000000e+00	0.000000e+00	0.000000e+00	
9.322861e-01	-1.902503e-02	1.295365e-01	3.558340e+00	1.090852e+00	2.798556e+04	1.117284e+04	3.004704e+02	5.811851e-01	8.268188e-02	1.848141e-05	0.000000e+00	0.000000e+00	0.000000e+00	0.000000e+00	
9.241278e-01	-2.153858e-02	1.295520e-01	3.486852e+00	1.069133e+00	2.798813e+04	1.117472e+04	3.004849e+02	5.991641e-01	8.101037e-02	1.848210e-05	0.000000e+00	0.000000e+00	0.000000e+00	0.000000e+00	
8.169832e-02	6.058862e-03	1.298893e-01	8.412187e-01	-2.994903e-02	2.804153e+04	1.121552e+04	3.007990e+02	9.890046e-01	1.863904e-02	1.849694e-05	0.000000e+00	0.000000e+00	0.000000e+00	0.000000e+00	
9.140383e-02	5.545527e-03	1.298735e-01	1.126604e+00	-7.530254e-02	2.803900e+04	1.121364e+04	3.007852e+02	9.709802e-01	2.500586e-02	1.849629e-05	0.000000e+00	0.000000e+00	0.000000e+00	0.000000e+00	
1.014763e-01	4.720479e-03	1.298567e-01	1.365102e+00	-1.279798e-01	2.803629e+04	1.121162e+04	3.007699e+02	9.517291e-01	3.036932e-02	1.849557e-05	0.000000e+00	0.000000e+00	0.000000e+00	0.000000e+00	
9.155475e-01	-2.415966e-02	1.295660e-01	3.422229e+00	1.034448e+00	2.799040e+04	1.117643e+04	3.004987e+02	6.155222e-01	7.940243e-02	1.848275e-05	0.000000e+00	0.000000e+00	0.000000e+00	0.000000e+00	
9.065337e-01	-2.685822e-02	1.295778e-01	3.366595e+00	9.946574e-01	2.799229e+04	1.117790e+04	3.005107e+02	6.295054e-01	7.795686e-02	1.848332e-05	0.000000e+00	0.000000e+00	0.000000e+00	0.000000e+00	
1.118924e-01	3.608040e-03	1.298401e-01	1.565578e+00	-1.843060e-01	2.803360e+04	1.120961e+04	3.007545e+02	9.325500e-01	3.492205e-02	1.849484e-05	0.000000e+00	0.000000e+00	0.000000e+00	0.000000e+00	
1.226615e-01	2.212213e-03	1.298238e-01	1.734430e+00	-2.422848e-01	2.803094e+04	1.120765e+04	3.007396e+02	9.138005e-01	3.880207e-02	1.849414e-05	0.000000e+00	0.000000e+00	0.000000e+00	0.000000e+00	
8.971042e-01	-2.960942e-02	1.295885e-01	3.318160e+00	9.548950e-01	2.799402e+04	1.117921e+04	3.005211e+02	6.420629e-01	7.666937e-02	1.848381e-05	0.000000e+00	0.000000e+00	0.000000e+00	0.000000e+00	
8.872672e-01	-3.240175e-02	1.295981e-01	3.274674e+00	9.167492e-01	2.799556e+04	1.118038e+04	3.005302e+02	6.532243e-01	7.550242e-02	1.848424e-05	0.000000e+00	0.000000e+00	0.000000e+00	0.000000e+00	
8.770203e-01	-3.523039e-02	1.296076e-01	3.233656e+00	8.804244e-01	2.799711e+04	1.118151e+04	3.005387e+02	6.640779e-01	7.440340e-02	1.848464e-05	0.000000e+00	0.000000e+00	0.000000e+00	0.000000e+00	
8.663811e-01	-3.808568e-02	1.296166e-01	3.193603e+00	8.448242e-01	2.799858e+04	1.118259e+04	3.005469e+02	6.743984e-01	7.333361e-02	1.848503e-05	0.000000e+00	0.000000e+00	0.000000e+00	0.000000e+00	