TITLE = "Visualization of the volumetric solution"
VARIABLES = "x""y""Conservative_1""Conservative_2""Conservative_3""Conservative_4""Pressure""Temperature""C<sub>p</sub>""Mach""<greek>m</greek>""C<sub>f</sub>_x""C<sub>f</sub>_y""h""y<sup>+</sup>"
ZONE NODES= 5233, ELEMENTS= 10216, DATAPACKING=POINT, ZONETYPE=FEQUADRILATERAL
1.002197e+00	-1.304709e-03	1.291004e-01	6.091035e-01	1.967885e+00	2.781878e+04	1.112094e+04	3.000848e+02	8.532045e-02	4.594810e-02	1.846318e-05	0.000000e+00	0.000000e+00	0.000000e+00	0.000000e+00	
1.002614e+00	-9.200341e-04	1.290581e-01	4.028180e-01	1.633559e+00	2.780796e+04	1.111880e+04	3.001255e+02	6.488261e-02	3.753766e-02	1.846510e-05	0.000000e+00	0.000000e+00	0.000000e+00	0.000000e+00	
1.002286e+00	-1.616181e-03	1.289483e-01	7.852704e-01	1.933843e+00	2.778622e+04	1.110773e+04	3.000821e+02	-4.084264e-02	4.661001e-02	1.846305e-05	0.000000e+00	0.000000e+00	0.000000e+00	0.000000e+00	
1.001800e+00	-1.543874e-03	1.289082e-01	7.362464e-01	2.480054e+00	2.778007e+04	1.110164e+04	3.000109e+02	-9.900459e-02	5.779676e-02	1.845968e-05	0.000000e+00	0.000000e+00	0.000000e+00	0.000000e+00	
1.002461e+00	-2.009224e-03	1.289584e-01	9.768737e-01	1.864020e+00	2.778901e+04	1.110873e+04	3.000856e+02	-3.127656e-02	4.699205e-02	1.846321e-05	0.000000e+00	0.000000e+00	0.000000e+00	0.000000e+00	
1.002671e+00	-2.506144e-03	1.289605e-01	1.264454e+00	1.800842e+00	2.779092e+04	1.110886e+04	3.000842e+02	-3.007938e-02	4.913373e-02	1.846315e-05	0.000000e+00	0.000000e+00	0.000000e+00	0.000000e+00	
1.002756e+00	-1.467576e-03	1.289011e-01	7.999253e-01	1.663914e+00	2.777489e+04	1.110467e+04	3.001093e+02	-7.011804e-02	4.124164e-02	1.846433e-05	0.000000e+00	0.000000e+00	0.000000e+00	0.000000e+00	
1.003177e+00	-1.056217e-03	1.289589e-01	6.440728e-01	1.521749e+00	2.778615e+04	1.111022e+04	3.001248e+02	-1.703566e-02	3.689555e-02	1.846507e-05	0.000000e+00	0.000000e+00	0.000000e+00	0.000000e+00	
1.003061e+00	-2.013978e-03	1.289615e-01	1.060511e+00	1.651787e+00	2.778908e+04	1.110966e+04	3.001033e+02	-2.246133e-02	4.382882e-02	1.846405e-05	0.000000e+00	0.000000e+00	0.000000e+00	0.000000e+00	
1.003131e+00	-6.588308e-04	1.289318e-01	2.687512e-01	1.479912e+00	2.777929e+04	1.110821e+04	3.001334e+02	-3.632149e-02	3.359044e-02	1.846547e-05	0.000000e+00	0.000000e+00	0.000000e+00	0.000000e+00	
1.002160e+00	-9.620817e-04	1.288448e-01	3.782715e-01	1.915198e+00	2.776373e+04	1.109958e+04	3.001027e+02	-1.187565e-01	4.362877e-02	1.846402e-05	0.000000e+00	0.000000e+00	0.000000e+00	0.000000e+00	
1.001764e+00	-1.164891e-03	1.287903e-01	4.900850e-01	2.529354e+00	2.775470e+04	1.109157e+04	3.000131e+02	-1.952312e-01	5.761166e-02	1.845978e-05	0.000000e+00	0.000000e+00	0.000000e+00	0.000000e+00	
1.002645e+00	-3.633664e-04	1.290673e-01	-4.905608e-01	1.353428e+00	2.780775e+04	1.111989e+04	3.001336e+02	7.531112e-02	3.211562e-02	1.846548e-05	0.000000e+00	0.000000e+00	0.000000e+00	0.000000e+00	
1.002147e+00	-6.226934e-04	1.290353e-01	-2.400950e-01	1.765474e+00	2.780410e+04	1.111672e+04	3.001225e+02	4.503809e-02	3.975888e-02	1.846496e-05	0.000000e+00	0.000000e+00	0.000000e+00	0.000000e+00	
1.001394e+00	-1.368277e-03	1.290300e-01	7.397024e-01	3.594798e+00	2.781331e+04	1.110444e+04	2.998033e+02	-7.226093e-02	8.194487e-02	1.844985e-05	0.000000e+00	0.000000e+00	0.000000e+00	0.000000e+00	
1.001934e+00	-1.963092e-03	1.288925e-01	9.615147e-01	2.278842e+00	2.777664e+04	1.110116e+04	3.000344e+02	-1.036069e-01	5.526237e-02	1.846079e-05	0.000000e+00	0.000000e+00	0.000000e+00	0.000000e+00	
1.001492e+00	-1.786680e-03	1.289811e-01	9.524477e-01	2.968449e+00	2.779932e+04	1.110466e+04	2.999228e+02	-7.023505e-02	6.961901e-02	1.845551e-05	0.000000e+00	0.000000e+00	0.000000e+00	0.000000e+00	
1.002104e+00	-2.399248e-03	1.288528e-01	1.263757e+00	2.074910e+00	2.776879e+04	1.109835e+04	3.000511e+02	-1.304387e-01	5.429647e-02	1.846158e-05	0.000000e+00	0.000000e+00	0.000000e+00	0.000000e+00	
1.002280e+00	-2.889081e-03	1.289131e-01	1.555164e+00	1.918651e+00	2.778308e+04	1.110377e+04	3.000569e+02	-7.870507e-02	5.517069e-02	1.846186e-05	0.000000e+00	0.000000e+00	0.000000e+00	0.000000e+00	
1.002896e+00	-3.027322e-03	1.289516e-01	1.585000e+00	1.734529e+00	2.779108e+04	1.110787e+04	3.000783e+02	-3.952720e-02	5.246974e-02	1.846287e-05	0.000000e+00	0.000000e+00	0.000000e+00	0.000000e+00	
1.003315e+00	-2.572553e-03	1.289251e-01	1.352042e+00	1.659495e+00	2.778324e+04	1.110619e+04	3.000943e+02	-5.558733e-02	4.780897e-02	1.846363e-05	0.000000e+00	0.000000e+00	0.000000e+00	0.000000e+00	
1.003363e+00	-1.557711e-03	1.290211e-01	8.947208e-01	1.516917e+00	2.780021e+04	1.111528e+04	3.001165e+02	3.124705e-02	3.930391e-02	1.846467e-05	0.000000e+00	0.000000e+00	0.000000e+00	0.000000e+00	
1.003714e+00	-7.833054e-04	1.290547e-01	4.456618e-01	1.428594e+00	2.780537e+04	1.111868e+04	3.001302e+02	6.374601e-02	3.338856e-02	1.846532e-05	0.000000e+00	0.000000e+00	0.000000e+00	0.000000e+00	
1.003716e+00	-2.074404e-03	1.289588e-01	1.173427e+00	1.554707e+00	2.778851e+04	1.110952e+04	3.001059e+02	-2.377966e-02	4.349248e-02	1.846417e-05	0.000000e+00	0.000000e+00	0.000000e+00	0.000000e+00	
1.003190e+00	-1.366197e-04	1.288649e-01	-3.456011e-01	1.259806e+00	2.776231e+04	1.110228e+04	3.001288e+02	-9.296052e-02	2.918920e-02	1.846526e-05	0.000000e+00	0.000000e+00	0.000000e+00	0.000000e+00	
1.002808e+00	2.129035e-04	1.291521e-01	-1.053162e+00	9.411574e-01	2.782193e+04	1.112568e+04	3.000929e+02	1.306729e-01	3.149092e-02	1.846356e-05	0.000000e+00	0.000000e+00	0.000000e+00	0.000000e+00	
1.001748e+00	-8.184729e-04	1.294224e-01	-3.646496e-01	2.351524e+00	2.789068e+04	1.114752e+04	3.000540e+02	3.393120e-01	5.294822e-02	1.846172e-05	0.000000e+00	0.000000e+00	0.000000e+00	0.000000e+00	
1.001384e+00	-1.007028e-03	1.292406e-01	-1.742472e-01	3.709544e+00	2.785957e+04	1.112249e+04	2.998011e+02	1.001319e-01	8.278175e-02	1.844975e-05	0.000000e+00	0.000000e+00	0.000000e+00	0.000000e+00	
1.002355e+00	5.663163e-04	1.284956e-01	-4.203558e-01	9.753735e-01	2.767757e+04	1.106927e+04	3.000967e+02	-4.082993e-01	2.380110e-02	1.846374e-05	0.000000e+00	0.000000e+00	0.000000e+00	0.000000e+00	
1.002273e+00	7.818877e-05	1.287417e-01	-1.165591e+00	9.439244e-01	2.773584e+04	1.109084e+04	3.001067e+02	-2.022221e-01	3.354644e-02	1.846421e-05	0.000000e+00	0.000000e+00	0.000000e+00	0.000000e+00	
1.002183e+00	-3.143953e-04	1.286008e-01	-9.971456e-01	1.282881e+00	2.770899e+04	1.107949e+04	3.001280e+02	-3.106833e-01	3.638003e-02	1.846522e-05	0.000000e+00	0.000000e+00	0.000000e+00	0.000000e+00	
1.001748e+00	-4.541222e-04	1.293858e-01	-1.549730e+00	1.709009e+00	2.788227e+04	1.114468e+04	3.000623e+02	3.121734e-01	5.134660e-02	1.846211e-05	0.000000e+00	0.000000e+00	0.000000e+00	0.000000e+00	
1.001040e+00	-1.170010e-03	1.283842e-01	6.228057e-01	5.108998e+00	2.768731e+04	1.103366e+04	2.993908e+02	-7.485712e-01	1.155738e-01	1.843032e-05	0.000000e+00	0.000000e+00	0.000000e+00	0.000000e+00	
1.003568e+00	-3.217642e-03	1.289683e-01	1.625967e+00	1.639290e+00	2.779487e+04	1.110968e+04	3.000881e+02	-2.223067e-02	5.155249e-02	1.846333e-05	0.000000e+00	0.000000e+00	0.000000e+00	0.000000e+00	
1.001094e+00	-1.600609e-03	1.290781e-01	1.402783e+00	4.447920e+00	2.783247e+04	1.109928e+04	2.995524e+02	-1.215592e-01	1.041381e-01	1.843798e-05	0.000000e+00	0.000000e+00	0.000000e+00	0.000000e+00	
1.000726e+00	-1.407344e-03	1.279200e-01	2.286133e+00	6.403118e+00	2.760841e+04	1.097109e+04	2.987733e+02	-1.346351e+00	1.533863e-01	1.840106e-05	0.000000e+00	0.000000e+00	0.000000e+00	0.000000e+00	
1.001584e+00	-2.253780e-03	1.290980e-01	1.219745e+00	2.602555e+00	2.782402e+04	1.111681e+04	2.999792e+02	4.589175e-02	6.412159e-02	1.845818e-05	0.000000e+00	0.000000e+00	0.000000e+00	0.000000e+00	
1.001141e+00	-2.074020e-03	1.281808e-01	1.636345e+00	3.334960e+00	2.763221e+04	1.103135e+04	2.998031e+02	-7.706014e-01	8.349167e-02	1.844984e-05	0.000000e+00	0.000000e+00	0.000000e+00	0.000000e+00	
1.001718e+00	-2.772102e-03	1.289143e-01	1.630355e+00	2.212349e+00	2.778485e+04	1.110222e+04	3.000124e+02	-9.348339e-02	6.139419e-02	1.845975e-05	0.000000e+00	0.000000e+00	0.000000e+00	0.000000e+00	
1.001920e+00	-3.274620e-03	1.289373e-01	1.851778e+00	1.944196e+00	2.779053e+04	1.110503e+04	3.000347e+02	-6.668108e-02	5.996859e-02	1.846081e-05	0.000000e+00	0.000000e+00	0.000000e+00	0.000000e+00	
1.002508e+00	-3.456894e-03	1.289679e-01	1.847944e+00	1.756617e+00	2.779671e+04	1.110860e+04	3.000600e+02	-3.253872e-02	5.693014e-02	1.846200e-05	0.000000e+00	0.000000e+00	0.000000e+00	0.000000e+00	
1.003374e+00	-3.638907e-03	1.289589e-01	1.889182e+00	1.624625e+00	2.779512e+04	1.110842e+04	3.000760e+02	-3.429451e-02	5.563840e-02	1.846276e-05	0.000000e+00	0.000000e+00	0.000000e+00	0.000000e+00	
1.004032e+00	-2.688683e-03	1.289443e-01	1.448415e+00	1.570623e+00	2.778787e+04	1.110807e+04	3.001005e+02	-3.763115e-02	4.771167e-02	1.846392e-05	0.000000e+00	0.000000e+00	0.000000e+00	0.000000e+00	
1.003848e+00	-4.217220e-05	1.290394e-01	-2.875830e-01	1.309138e+00	2.779920e+04	1.111690e+04	3.001178e+02	4.671360e-02	2.990903e-02	1.846473e-05	0.000000e+00	0.000000e+00	0.000000e+00	0.000000e+00	
1.004046e+00	-1.464928e-03	1.288871e-01	9.421453e-01	1.472444e+00	2.777108e+04	1.110369e+04	3.001154e+02	-7.946939e-02	3.905306e-02	1.846462e-05	0.000000e+00	0.000000e+00	0.000000e+00	0.000000e+00	
1.004435e+00	-6.759067e-04	1.289489e-01	4.673335e-01	1.417431e+00	2.778215e+04	1.110941e+04	3.001259e+02	-2.484750e-02	3.332664e-02	1.846512e-05	0.000000e+00	0.000000e+00	0.000000e+00	0.000000e+00	
1.004469e+00	-2.074891e-03	1.289964e-01	1.234249e+00	1.508144e+00	2.779678e+04	1.111282e+04	3.001077e+02	7.807453e-03	4.350157e-02	1.846426e-05	0.000000e+00	0.000000e+00	0.000000e+00	0.000000e+00	
1.003385e+00	4.323692e-04	1.289322e-01	-8.629634e-01	1.091694e+00	2.777300e+04	1.110620e+04	3.000780e+02	-5.552731e-02	3.108004e-02	1.846285e-05	0.000000e+00	0.000000e+00	0.000000e+00	0.000000e+00	
1.002901e+00	7.790548e-04	1.290976e-01	-5.186403e-01	1.022934e+00	2.780462e+04	1.111981e+04	3.000611e+02	7.454920e-02	2.558316e-02	1.846205e-05	0.000000e+00	0.000000e+00	0.000000e+00	0.000000e+00	
1.004066e+00	6.434920e-04	1.289693e-01	-8.971418e-01	1.125367e+00	2.778036e+04	1.110893e+04	3.000658e+02	-2.938030e-02	3.213510e-02	1.846227e-05	0.000000e+00	0.000000e+00	0.000000e+00	0.000000e+00	
1.002426e+00	1.074290e-03	1.293489e-01	1.576351e+00	2.427397e+00	2.786681e+04	1.113377e+04	2.998542e+02	2.079526e-01	6.445866e-02	1.845226e-05	0.000000e+00	0.000000e+00	0.000000e+00	0.000000e+00	
1.001388e+00	-6.556361e-04	1.279251e-01	-1.354649e+00	2.541813e+00	2.757136e+04	1.101557e+04	2.999727e+02	-9.213382e-01	6.484642e-02	1.845787e-05	0.000000e+00	0.000000e+00	0.000000e+00	0.000000e+00	
1.001053e+00	-8.531186e-04	1.286458e-01	-1.951376e+00	4.632863e+00	2.774332e+04	1.105804e+04	2.994420e+02	-5.156151e-01	1.126452e-01	1.843275e-05	0.000000e+00	0.000000e+00	0.000000e+00	0.000000e+00	
1.001940e+00	8.126229e-04	1.296832e-01	2.202057e+00	3.395287e+00	2.795169e+04	1.115542e+04	2.996625e+02	4.147494e-01	8.992257e-02	1.844319e-05	0.000000e+00	0.000000e+00	0.000000e+00	0.000000e+00	
1.001891e+00	3.565445e-04	1.291123e-01	-2.428152e-01	1.498911e+00	2.781425e+04	1.112213e+04	3.000894e+02	9.669147e-02	3.386562e-02	1.846339e-05	0.000000e+00	0.000000e+00	0.000000e+00	0.000000e+00	
1.001817e+00	-5.497834e-05	1.296437e-01	-1.764461e+00	1.142958e+00	2.793438e+04	1.116693e+04	3.000634e+02	5.247805e-01	4.669695e-02	1.846216e-05	0.000000e+00	0.000000e+00	0.000000e+00	0.000000e+00	
1.001454e+00	-2.661358e-04	1.280586e-01	-1.950818e+00	1.711602e+00	2.759695e+04	1.102826e+04	3.000050e+02	-8.001293e-01	5.836542e-02	1.845940e-05	0.000000e+00	0.000000e+00	0.000000e+00	0.000000e+00	
1.000704e+00	-1.000344e-03	1.296167e-01	-1.610697e+00	7.319443e+00	2.798173e+04	1.110602e+04	2.984887e+02	-5.718082e-02	1.669448e-01	1.838757e-05	0.000000e+00	0.000000e+00	0.000000e+00	0.000000e+00	
1.000349e+00	-1.278162e-03	1.284025e-01	2.338517e+00	9.769999e+00	2.776894e+04	1.095038e+04	2.970887e+02	-1.544217e+00	2.264262e-01	1.832108e-05	0.000000e+00	0.000000e+00	0.000000e+00	0.000000e+00	
3.124498e-03	-5.559640e-02	1.244469e-01	3.571939e+00	-1.167849e+01	2.702200e+04	1.056911e+04	2.958588e+02	-5.186974e+00	2.845971e-01	1.826255e-05	0.000000e+00	0.000000e+00	0.000000e+00	0.000000e+00	
2.537646e-03	-5.351331e-02	1.244067e-01	3.159478e+00	-1.182652e+01	2.701461e+04	1.056494e+04	2.958379e+02	-5.226755e+00	2.853693e-01	1.826155e-05	0.000000e+00	0.000000e+00	0.000000e+00	0.000000e+00	
2.003081e-03	-5.142149e-02	1.246622e-01	2.719951e+00	-1.183091e+01	2.706740e+04	1.059053e+04	2.959466e+02	-4.982283e+00	2.823659e-01	1.826673e-05	0.000000e+00	0.000000e+00	0.000000e+00	0.000000e+00	
1.004416e+00	-3.687108e-03	1.289593e-01	1.837280e+00	1.547973e+00	2.779478e+04	1.110896e+04	3.000897e+02	-2.910808e-02	5.364501e-02	1.846341e-05	0.000000e+00	0.000000e+00	0.000000e+00	0.000000e+00	
1.000730e+00	-1.898193e-03	1.294002e-01	2.290042e+00	4.711195e+00	2.790873e+04	1.112108e+04	2.993936e+02	8.670132e-02	1.167036e-01	1.843045e-05	0.000000e+00	0.000000e+00	0.000000e+00	0.000000e+00	
1.000388e+00	-1.645539e-03	1.273383e-01	4.804383e+00	5.912073e+00	2.749691e+04	1.090762e+04	2.984016e+02	-1.952795e+00	1.727569e-01	1.838343e-05	0.000000e+00	0.000000e+00	0.000000e+00	0.000000e+00	
1.001192e+00	-2.542211e-03	1.288582e-01	1.845915e+00	2.799255e+00	2.777687e+04	1.109330e+04	2.999017e+02	-1.787393e-01	7.495405e-02	1.845451e-05	0.000000e+00	0.000000e+00	0.000000e+00	0.000000e+00	
1.000749e+00	-2.357750e-03	1.292274e-01	2.047798e+00	3.376417e+00	2.786066e+04	1.112013e+04	2.997681e+02	7.760095e-02	8.803955e-02	1.844819e-05	0.000000e+00	0.000000e+00	0.000000e+00	0.000000e+00	
1.001335e+00	-3.189214e-03	1.288957e-01	2.029062e+00	2.259219e+00	2.778403e+04	1.109930e+04	2.999767e+02	-1.213797e-01	6.785185e-02	1.845806e-05	0.000000e+00	0.000000e+00	0.000000e+00	0.000000e+00	
1.001603e+00	-3.725916e-03	1.288551e-01	2.102132e+00	1.965407e+00	2.777501e+04	1.109715e+04	3.000132e+02	-1.419438e-01	6.431933e-02	1.845979e-05	0.000000e+00	0.000000e+00	0.000000e+00	0.000000e+00	
1.000046e+00	-1.489905e-03	1.294854e-01	6.327845e+00	5.584041e+00	2.797097e+04	1.107838e+04	2.980476e+02	-3.212963e-01	1.883207e-01	1.836663e-05	0.000000e+00	0.000000e+00	0.000000e+00	0.000000e+00	
9.997621e-01	-1.104660e-03	1.310510e-01	7.129198e+00	2.238095e+00	2.828861e+04	1.123023e+04	2.985237e+02	1.129542e+00	1.646163e-01	1.838923e-05	0.000000e+00	0.000000e+00	0.000000e+00	0.000000e+00	
1.002226e+00	-3.822172e-03	1.289295e-01	2.090611e+00	1.798301e+00	2.779057e+04	1.110443e+04	3.000368e+02	-7.236749e-02	6.159538e-02	1.846090e-05	0.000000e+00	0.000000e+00	0.000000e+00	0.000000e+00	
1.002882e+00	-4.152170e-03	1.289287e-01	2.139534e+00	1.649328e+00	2.779074e+04	1.110498e+04	3.000534e+02	-6.716894e-02	6.033942e-02	1.846169e-05	0.000000e+00	0.000000e+00	0.000000e+00	0.000000e+00	
1.003908e+00	-4.435489e-03	1.289600e-01	2.219733e+00	1.541774e+00	2.779874e+04	1.110817e+04	3.000666e+02	-3.669205e-02	6.034984e-02	1.846231e-05	0.000000e+00	0.000000e+00	0.000000e+00	0.000000e+00	
1.004971e+00	-2.911503e-03	1.289718e-01	1.538773e+00	1.499813e+00	2.779424e+04	1.111054e+04	3.001031e+02	-1.406267e-02	4.797481e-02	1.846404e-05	0.000000e+00	0.000000e+00	0.000000e+00	0.000000e+00	
1.004617e+00	1.041931e-04	1.289290e-01	-2.741871e-01	1.296802e+00	2.777498e+04	1.110727e+04	3.001145e+02	-4.527717e-02	2.960243e-02	1.846458e-05	0.000000e+00	0.000000e+00	0.000000e+00	0.000000e+00	
1.004844e+00	-1.370123e-03	1.290213e-01	9.371594e-01	1.464372e+00	2.779987e+04	1.111526e+04	3.001157e+02	3.110659e-02	3.880070e-02	1.846464e-05	0.000000e+00	0.000000e+00	0.000000e+00	0.000000e+00	
1.005256e+00	-5.437874e-04	1.289628e-01	4.195814e-01	1.399933e+00	2.778482e+04	1.111062e+04	3.001262e+02	-1.328672e-02	3.263030e-02	1.846513e-05	0.000000e+00	0.000000e+00	0.000000e+00	0.000000e+00	
1.005376e+00	-2.092819e-03	1.289480e-01	1.268718e+00	1.454127e+00	2.778621e+04	1.110871e+04	3.001091e+02	-3.153111e-02	4.309327e-02	1.846432e-05	0.000000e+00	0.000000e+00	0.000000e+00	0.000000e+00	
1.005573e+00	-3.723590e-03	1.289582e-01	1.849528e+00	1.466964e+00	2.779451e+04	1.110916e+04	3.000978e+02	-2.717905e-02	5.271149e-02	1.846379e-05	0.000000e+00	0.000000e+00	0.000000e+00	0.000000e+00	
1.004883e+00	9.375430e-04	1.288904e-01	-7.679800e-01	1.070046e+00	2.776298e+04	1.110250e+04	3.000755e+02	-9.083420e-02	2.942652e-02	1.846273e-05	0.000000e+00	0.000000e+00	0.000000e+00	0.000000e+00	
1.003502e+00	1.074827e-03	1.286824e-01	-4.542768e-01	1.228887e+00	2.771424e+04	1.108303e+04	3.000333e+02	-2.768615e-01	2.932061e-02	1.846074e-05	0.000000e+00	0.000000e+00	0.000000e+00	0.000000e+00	
1.002951e+00	1.416133e-03	1.290947e-01	1.046071e+00	1.933477e+00	2.780459e+04	1.111435e+04	2.999204e+02	2.236876e-02	4.904899e-02	1.845540e-05	0.000000e+00	0.000000e+00	0.000000e+00	0.000000e+00	
1.004266e+00	1.553243e-03	1.291408e-01	-3.209059e-01	1.239791e+00	2.781293e+04	1.112263e+04	3.000366e+02	1.014983e-01	2.855819e-02	1.846089e-05	0.000000e+00	0.000000e+00	0.000000e+00	0.000000e+00	
1.002667e+00	1.727145e-03	1.290395e-01	4.224092e+00	4.228041e+00	2.783271e+04	1.107772e+04	2.990599e+02	-3.275808e-01	1.335983e-01	1.841465e-05	0.000000e+00	0.000000e+00	0.000000e+00	0.000000e+00	
1.001993e+00	1.345753e-03	1.299216e-01	5.063646e+00	5.871886e+00	2.805449e+04	1.112925e+04	2.984111e+02	1.647278e-01	1.723338e-01	1.838388e-05	0.000000e+00	0.000000e+00	0.000000e+00	0.000000e+00	
1.001122e+00	-4.537416e-04	1.319548e-01	-4.087479e+00	2.757305e+00	2.845520e+04	1.134523e+04	2.995150e+02	2.228284e+00	1.076989e-01	1.843621e-05	0.000000e+00	0.000000e+00	0.000000e+00	0.000000e+00	
1.000804e+00	-6.168257e-04	1.254148e-01	-4.039677e+00	5.152244e+00	2.706578e+04	1.075795e+04	2.988212e+02	-3.382683e+00	1.506420e-01	1.840333e-05	0.000000e+00	0.000000e+00	0.000000e+00	0.000000e+00	
1.001559e+00	1.055539e-03	1.295121e-01	6.030744e+00	7.556526e+00	2.800737e+04	1.105860e+04	2.974543e+02	-5.102227e-01	2.159081e-01	1.833846e-05	0.000000e+00	0.000000e+00	0.000000e+00	0.000000e+00	
1.001505e+00	6.020740e-04	1.291113e-01	3.947243e+00	5.025991e+00	2.785842e+04	1.108010e+04	2.989578e+02	-3.048262e-01	1.428012e-01	1.840981e-05	0.000000e+00	0.000000e+00	0.000000e+00	0.000000e+00	
1.001483e+00	1.485766e-04	1.279191e-01	2.429029e-01	1.920108e+00	2.756026e+04	1.101825e+04	3.000595e+02	-8.958132e-01	4.356978e-02	1.846198e-05	0.000000e+00	0.000000e+00	0.000000e+00	0.000000e+00	
1.001149e+00	-4.585218e-05	1.287074e-01	-4.339175e-01	2.595827e+00	2.773319e+04	1.108251e+04	2.999612e+02	-2.817867e-01	5.889456e-02	1.845733e-05	0.000000e+00	0.000000e+00	0.000000e+00	0.000000e+00	
1.000463e+00	-6.912135e-04	1.334893e-01	-9.955996e+00	5.963042e+00	2.889671e+04	1.135690e+04	2.963764e+02	2.339747e+00	2.519033e-01	1.828720e-05	0.000000e+00	0.000000e+00	0.000000e+00	0.000000e+00	
1.000000e+00	-1.000000e-03	1.134962e-01	-1.568373e+00	6.068543e+00	2.449361e+04	9.728213e+03	2.985947e+02	-1.322102e+01	1.594239e-01	1.839259e-05	0.000000e+00	0.000000e+00	0.000000e+00	0.000000e+00	
4.487486e-03	-5.984839e-02	1.245057e-01	4.012753e+00	-1.160475e+01	2.703614e+04	1.057226e+04	2.958074e+02	-5.156823e+00	2.860345e-01	1.826010e-05	0.000000e+00	0.000000e+00	0.000000e+00	0.000000e+00	
6.075662e-03	-6.411950e-02	1.243008e-01	4.585439e+00	-1.152797e+01	2.699539e+04	1.055050e+04	2.956849e+02	-5.364775e+00	2.895414e-01	1.825427e-05	0.000000e+00	0.000000e+00	0.000000e+00	0.000000e+00	
1.316266e-04	-5.507472e-02	1.248389e-01	3.287924e+00	-1.150213e+01	2.710218e+04	1.061160e+04	2.961157e+02	-4.780982e+00	2.777823e-01	1.827478e-05	0.000000e+00	0.000000e+00	0.000000e+00	0.000000e+00	
5.804722e-05	-5.877246e-02	1.248882e-01	3.732726e+00	-1.132350e+01	2.711183e+04	1.061708e+04	2.961515e+02	-4.728620e+00	2.767283e-01	1.827649e-05	0.000000e+00	0.000000e+00	0.000000e+00	0.000000e+00	
-3.247139e-04	-5.273053e-02	1.248808e-01	2.909223e+00	-1.154510e+01	2.710990e+04	1.061694e+04	2.961652e+02	-4.729984e+00	2.763469e-01	1.827714e-05	0.000000e+00	0.000000e+00	0.000000e+00	0.000000e+00	
-2.407056e-03	-5.420105e-02	1.251357e-01	3.053906e+00	-1.132141e+01	2.716132e+04	1.064477e+04	2.963365e+02	-4.464098e+00	2.715375e-01	1.828530e-05	0.000000e+00	0.000000e+00	0.000000e+00	0.000000e+00	
1.078855e-03	-4.710266e-02	1.246848e-01	2.171514e+00	-1.178341e+01	2.706887e+04	1.059726e+04	2.960809e+02	-4.917961e+00	2.785836e-01	1.827313e-05	0.000000e+00	0.000000e+00	0.000000e+00	0.000000e+00	
-1.904173e-03	-4.926581e-02	1.250922e-01	2.421915e+00	-1.143211e+01	2.715044e+04	1.064184e+04	2.963582e+02	-4.492031e+00	2.706900e-01	1.828633e-05	0.000000e+00	0.000000e+00	0.000000e+00	0.000000e+00	
1.005021e+00	-4.605930e-03	1.289811e-01	2.192622e+00	1.456800e+00	2.780320e+04	1.111053e+04	3.000816e+02	-1.407483e-02	5.877162e-02	1.846302e-05	0.000000e+00	0.000000e+00	0.000000e+00	0.000000e+00	
1.001531e+00	-4.190372e-03	1.289319e-01	2.355746e+00	1.871836e+00	2.779380e+04	1.110348e+04	3.000054e+02	-8.150915e-02	6.720940e-02	1.845942e-05	0.000000e+00	0.000000e+00	0.000000e+00	0.000000e+00	
1.000302e+00	-2.224638e-03	1.280559e-01	3.245359e+00	3.861361e+00	2.761877e+04	1.100777e+04	2.994540e+02	-9.958718e-01	1.135445e-01	1.843332e-05	0.000000e+00	0.000000e+00	0.000000e+00	0.000000e+00	
1.000761e+00	-3.043351e-03	1.289826e-01	2.396324e+00	2.768631e+00	2.780782e+04	1.110234e+04	2.998566e+02	-9.237946e-02	8.177868e-02	1.845237e-05	0.000000e+00	0.000000e+00	0.000000e+00	0.000000e+00	
1.001004e+00	-3.669017e-03	1.288682e-01	2.304110e+00	2.132260e+00	2.778057e+04	1.109693e+04	2.999767e+02	-1.440232e-01	7.016168e-02	1.845806e-05	0.000000e+00	0.000000e+00	0.000000e+00	0.000000e+00	
9.996115e-01	-1.963758e-03	1.272119e-01	4.292226e+00	2.646013e+00	2.743638e+04	1.093458e+04	2.994365e+02	-1.695189e+00	1.142610e-01	1.843249e-05	0.000000e+00	0.000000e+00	0.000000e+00	0.000000e+00	
9.990485e-01	-1.418592e-03	1.277622e-01	4.531940e+00	2.219194e+00	2.755429e+04	1.098185e+04	2.994358e+02	-1.243510e+00	1.138556e-01	1.843245e-05	0.000000e+00	0.000000e+00	0.000000e+00	0.000000e+00	
1.002252e+00	-4.526161e-03	1.289922e-01	2.345371e+00	1.674500e+00	2.780647e+04	1.110971e+04	3.000335e+02	-2.193270e-02	6.433766e-02	1.846075e-05	0.000000e+00	0.000000e+00	0.000000e+00	0.000000e+00	
1.002926e+00	-4.933825e-03	1.289703e-01	2.378924e+00	1.585649e+00	2.780242e+04	1.110829e+04	3.000460e+02	-3.548509e-02	6.383709e-02	1.846134e-05	0.000000e+00	0.000000e+00	0.000000e+00	0.000000e+00	
1.001716e+00	-5.104750e-03	1.288467e-01	2.563266e+00	1.704129e+00	2.777744e+04	1.109627e+04	3.000088e+02	-1.503520e-01	6.879966e-02	1.845958e-05	0.000000e+00	0.000000e+00	0.000000e+00	0.000000e+00	
1.004687e+00	-5.680284e-03	1.289859e-01	2.501699e+00	1.422400e+00	2.780756e+04	1.111018e+04	3.000609e+02	-1.744472e-02	6.424874e-02	1.846204e-05	0.000000e+00	0.000000e+00	0.000000e+00	0.000000e+00	
1.003653e+00	-5.463246e-03	1.289822e-01	2.526704e+00	1.499746e+00	2.780702e+04	1.110942e+04	3.000490e+02	-2.469194e-02	6.560214e-02	1.846148e-05	0.000000e+00	0.000000e+00	0.000000e+00	0.000000e+00	
1.006035e+00	-2.796680e-03	1.289738e-01	1.528196e+00	1.433679e+00	2.779419e+04	1.111087e+04	3.001074e+02	-1.088157e-02	4.678255e-02	1.846424e-05	0.000000e+00	0.000000e+00	0.000000e+00	0.000000e+00	
1.005490e+00	2.831343e-04	1.290370e-01	-2.259900e-01	1.274545e+00	2.779812e+04	1.111665e+04	3.001165e+02	4.435818e-02	2.888477e-02	1.846467e-05	0.000000e+00	0.000000e+00	0.000000e+00	0.000000e+00	
1.005747e+00	-1.254162e-03	1.289634e-01	8.963771e-01	1.420620e+00	2.778692e+04	1.111039e+04	3.001189e+02	-1.541364e-02	3.750505e-02	1.846479e-05	0.000000e+00	0.000000e+00	0.000000e+00	0.000000e+00	
1.006183e+00	-3.849256e-04	1.289874e-01	4.152783e-01	1.365066e+00	2.778984e+04	1.111278e+04	3.001276e+02	7.373459e-03	3.185115e-02	1.846520e-05	0.000000e+00	0.000000e+00	0.000000e+00	0.000000e+00	
1.006337e+00	-1.846282e-03	1.289999e-01	1.204035e+00	1.403247e+00	2.779659e+04	1.111334e+04	3.001134e+02	1.269543e-02	4.127204e-02	1.846453e-05	0.000000e+00	0.000000e+00	0.000000e+00	0.000000e+00	
1.006729e+00	-3.670392e-03	1.289746e-01	1.798480e+00	1.390862e+00	2.779706e+04	1.111081e+04	3.001041e+02	-1.145181e-02	5.075930e-02	1.846409e-05	0.000000e+00	0.000000e+00	0.000000e+00	0.000000e+00	
1.006234e+00	-4.734471e-03	1.289964e-01	2.151023e+00	1.385029e+00	2.780597e+04	1.111224e+04	3.000921e+02	2.232837e-03	5.710945e-02	1.846352e-05	0.000000e+00	0.000000e+00	0.000000e+00	0.000000e+00	
1.005838e+00	1.025658e-03	1.289735e-01	-6.372153e-01	1.070727e+00	2.778100e+04	1.110999e+04	3.000846e+02	-1.923583e-02	2.781919e-02	1.846317e-05	0.000000e+00	0.000000e+00	0.000000e+00	0.000000e+00	
1.005251e+00	1.790913e-03	1.288871e-01	-2.411419e-01	1.058988e+00	2.775816e+04	1.110143e+04	3.000543e+02	-1.010322e-01	2.426666e-02	1.846173e-05	0.000000e+00	0.000000e+00	0.000000e+00	0.000000e+00	
1.003543e+00	2.072246e-03	1.287140e-01	2.588173e+00	2.635179e+00	2.773563e+04	1.107305e+04	2.996898e+02	-3.721715e-01	8.268777e-02	1.844448e-05	0.000000e+00	0.000000e+00	0.000000e+00	0.000000e+00	
1.004536e+00	2.469218e-03	1.289816e-01	2.169723e+00	2.112964e+00	2.778806e+04	1.110100e+04	2.998228e+02	-1.051644e-01	6.764420e-02	1.845078e-05	0.000000e+00	0.000000e+00	0.000000e+00	0.000000e+00	
1.002109e+00	2.027462e-03	1.305849e-01	7.307522e+00	7.814644e+00	2.826711e+04	1.113153e+04	2.969560e+02	1.865010e-01	2.371675e-01	1.831477e-05	0.000000e+00	0.000000e+00	0.000000e+00	0.000000e+00	
1.002876e+00	2.567167e-03	1.308807e-01	6.915574e+00	6.600507e+00	2.830433e+04	1.118208e+04	2.976304e+02	6.694601e-01	2.111985e-01	1.834682e-05	0.000000e+00	0.000000e+00	0.000000e+00	0.000000e+00	
1.001667e+00	1.576902e-03	1.318970e-01	7.384779e+00	9.128132e+00	2.857745e+04	1.122194e+04	2.963900e+02	1.050318e+00	2.579290e-01	1.828784e-05	0.000000e+00	0.000000e+00	0.000000e+00	0.000000e+00	
1.001198e+00	1.345868e-03	1.313061e-01	7.724615e+00	1.030072e+01	2.848367e+04	1.114097e+04	2.955756e+02	2.766946e-01	2.845058e-01	1.824905e-05	0.000000e+00	0.000000e+00	0.000000e+00	0.000000e+00	
1.000846e+00	-1.974462e-04	1.249517e-01	-1.754508e-01	2.718830e+00	2.692319e+04	1.075740e+04	2.999131e+02	-3.388017e+00	6.280523e-02	1.845505e-05	0.000000e+00	0.000000e+00	0.000000e+00	0.000000e+00	
1.000592e+00	-3.585553e-04	1.263136e-01	-2.653405e+00	4.104223e+00	2.722716e+04	1.085305e+04	2.993172e+02	-2.474165e+00	1.115577e-01	1.842684e-05	0.000000e+00	0.000000e+00	0.000000e+00	0.000000e+00	
1.001122e+00	8.649922e-04	1.326777e-01	6.754259e+00	1.000869e+01	2.874877e+04	1.127974e+04	2.961635e+02	1.602511e+00	2.637894e-01	1.827706e-05	0.000000e+00	0.000000e+00	0.000000e+00	0.000000e+00	
1.001136e+00	3.335341e-04	1.326835e-01	4.538885e+00	7.245752e+00	2.866207e+04	1.135464e+04	2.981171e+02	2.318150e+00	1.861687e-01	1.836993e-05	0.000000e+00	0.000000e+00	0.000000e+00	0.000000e+00	
1.000841e+00	1.523725e-04	1.303550e-01	7.690553e+00	8.948844e+00	2.823197e+04	1.107918e+04	2.960807e+02	-3.136703e-01	2.624093e-01	1.827312e-05	0.000000e+00	0.000000e+00	0.000000e+00	0.000000e+00	
1.000364e+00	-3.368508e-04	1.243189e-01	4.676668e+00	1.636738e+01	2.709650e+04	1.037244e+04	2.906525e+02	-7.065974e+00	4.006341e-01	1.801347e-05	0.000000e+00	0.000000e+00	0.000000e+00	0.000000e+00	
1.000000e+00	0.000000e+00	2.422560e-01	1.938415e+01	1.030471e+02	5.863055e+04	1.437550e+04	2.067183e+02	3.118003e+01	1.501668e+00	1.366421e-05	0.000000e+00	0.000000e+00	0.000000e+00	0.000000e+00	
1.037718e-03	-6.352070e-02	1.248551e-01	4.265927e+00	-1.120629e+01	2.710635e+04	1.061223e+04	2.960947e+02	-4.774985e+00	2.784051e-01	1.827379e-05	0.000000e+00	0.000000e+00	0.000000e+00	0.000000e+00	
7.917903e-03	-6.847316e-02	1.242334e-01	5.127565e+00	-1.140789e+01	2.698332e+04	1.054149e+04	2.955930e+02	-5.450806e+00	2.920979e-01	1.824989e-05	0.000000e+00	0.000000e+00	0.000000e+00	0.000000e+00	
1.006240e-02	-7.298040e-02	1.241382e-01	5.669661e+00	-1.126667e+01	2.696549e+04	1.052990e+04	2.954942e+02	-5.561578e+00	2.948377e-01	1.824518e-05	0.000000e+00	0.000000e+00	0.000000e+00	0.000000e+00	
1.251909e-02	-7.761123e-02	1.240458e-01	6.207742e+00	-1.110087e+01	2.694830e+04	1.051850e+04	2.953944e+02	-5.670446e+00	2.975848e-01	1.824042e-05	0.000000e+00	0.000000e+00	0.000000e+00	0.000000e+00	
1.529738e-02	-8.233610e-02	1.239527e-01	6.745865e+00	-1.089663e+01	2.693074e+04	1.050729e+04	2.953010e+02	-5.777599e+00	3.001279e-01	1.823596e-05	0.000000e+00	0.000000e+00	0.000000e+00	0.000000e+00	
1.843145e-02	-8.715460e-02	1.238734e-01	7.275708e+00	-1.064050e+01	2.691550e+04	1.049793e+04	2.952270e+02	-5.866997e+00	3.021019e-01	1.823244e-05	0.000000e+00	0.000000e+00	0.000000e+00	0.000000e+00	
2.196161e-02	-9.207457e-02	1.238226e-01	7.774963e+00	-1.033854e+01	2.690554e+04	1.049193e+04	2.951793e+02	-5.924295e+00	3.033209e-01	1.823016e-05	0.000000e+00	0.000000e+00	0.000000e+00	0.000000e+00	
2.590787e-02	-9.708824e-02	1.237997e-01	8.240612e+00	-1.001616e+01	2.690123e+04	1.048871e+04	2.951434e+02	-5.955056e+00	3.042064e-01	1.822845e-05	0.000000e+00	0.000000e+00	0.000000e+00	0.000000e+00	
3.032086e-02	-1.022278e-01	1.237769e-01	8.684441e+00	-9.678541e+00	2.689696e+04	1.048556e+04	2.951089e+02	-5.985188e+00	3.050591e-01	1.822680e-05	0.000000e+00	0.000000e+00	0.000000e+00	0.000000e+00	
3.519676e-02	-1.074333e-01	1.237500e-01	9.114472e+00	-9.309851e+00	2.689156e+04	1.048228e+04	2.950808e+02	-6.016490e+00	3.057288e-01	1.822546e-05	0.000000e+00	0.000000e+00	0.000000e+00	0.000000e+00	
4.055945e-02	-1.126783e-01	1.237405e-01	9.519359e+00	-8.907095e+00	2.688938e+04	1.048106e+04	2.950689e+02	-6.028195e+00	3.059453e-01	1.822490e-05	0.000000e+00	0.000000e+00	0.000000e+00	0.000000e+00	
4.640551e-02	-1.179143e-01	1.237505e-01	9.890652e+00	-8.476614e+00	2.689083e+04	1.048211e+04	2.950747e+02	-6.018185e+00	3.056687e-01	1.822518e-05	0.000000e+00	0.000000e+00	0.000000e+00	0.000000e+00	
5.272092e-02	-1.230942e-01	1.237789e-01	1.022117e+01	-8.022783e+00	2.689562e+04	1.048544e+04	2.951008e+02	-5.986322e+00	3.048271e-01	1.822642e-05	0.000000e+00	0.000000e+00	0.000000e+00	0.000000e+00	