TITLE = "Visualization of the volumetric solution"
VARIABLES = "x""y""Conservative_1""Conservative_2""Conservative_3""Conservative_4""Pressure""Temperature""C<sub>p</sub>""Mach""<greek>m</greek>""C<sub>f</sub>_x""C<sub>f</sub>_y""h""y<sup>+</sup>"
ZONE NODES= 5233, ELEMENTS= 10216, DATAPACKING=POINT, ZONETYPE=FEQUADRILATERAL
1.002197e+00	-1.309371e-03	1.291015e-01	6.785384e-01	1.995200e+00	2.781996e+04	1.112110e+04	3.000869e+02	8.691787e-02	4.700548e-02	1.846327e-05	0.000000e+00	0.000000e+00	0.000000e+00	0.000000e+00	
1.002615e+00	-9.255745e-04	1.290587e-01	4.771649e-01	1.650257e+00	2.780920e+04	1.111911e+04	3.001324e+02	6.782324e-02	3.832609e-02	1.846542e-05	0.000000e+00	0.000000e+00	0.000000e+00	0.000000e+00	
1.002286e+00	-1.621123e-03	1.289480e-01	8.535855e-01	1.959838e+00	2.778712e+04	1.110776e+04	3.000836e+02	-4.058383e-02	4.773680e-02	1.846312e-05	0.000000e+00	0.000000e+00	0.000000e+00	0.000000e+00	
1.001800e+00	-1.547705e-03	1.289100e-01	8.063769e-01	2.522784e+00	2.778137e+04	1.110167e+04	3.000075e+02	-9.879550e-02	5.917015e-02	1.845952e-05	0.000000e+00	0.000000e+00	0.000000e+00	0.000000e+00	
1.002460e+00	-2.014623e-03	1.289564e-01	1.048576e+00	1.886118e+00	2.778961e+04	1.110862e+04	3.000874e+02	-3.234634e-02	4.818761e-02	1.846330e-05	0.000000e+00	0.000000e+00	0.000000e+00	0.000000e+00	
1.002668e+00	-2.512052e-03	1.289605e-01	1.341766e+00	1.819994e+00	2.779205e+04	1.110889e+04	3.000850e+02	-2.978537e-02	5.048916e-02	1.846318e-05	0.000000e+00	0.000000e+00	0.000000e+00	0.000000e+00	
1.002756e+00	-1.473602e-03	1.289007e-01	8.695536e-01	1.677732e+00	2.777590e+04	1.110482e+04	3.001143e+02	-6.867879e-02	4.221260e-02	1.846457e-05	0.000000e+00	0.000000e+00	0.000000e+00	0.000000e+00	
1.003178e+00	-1.063226e-03	1.289596e-01	7.158412e-01	1.527652e+00	2.778750e+04	1.111058e+04	3.001330e+02	-1.359214e-02	3.766774e-02	1.846545e-05	0.000000e+00	0.000000e+00	0.000000e+00	0.000000e+00	
1.003060e+00	-2.020824e-03	1.289619e-01	1.134814e+00	1.663194e+00	2.779034e+04	1.110985e+04	3.001077e+02	-2.063564e-02	4.495666e-02	1.846426e-05	0.000000e+00	0.000000e+00	0.000000e+00	0.000000e+00	
1.003133e+00	-6.656092e-04	1.289304e-01	3.429316e-01	1.488569e+00	2.778022e+04	1.110847e+04	3.001436e+02	-3.382069e-02	3.411376e-02	1.846596e-05	0.000000e+00	0.000000e+00	0.000000e+00	0.000000e+00	
1.002160e+00	-9.665487e-04	1.288489e-01	4.542498e-01	1.946200e+00	2.776557e+04	1.110003e+04	3.001053e+02	-1.144405e-01	4.466216e-02	1.846415e-05	0.000000e+00	0.000000e+00	0.000000e+00	0.000000e+00	
1.001764e+00	-1.168533e-03	1.287896e-01	5.656289e-01	2.578029e+00	2.775546e+04	1.109136e+04	3.000091e+02	-1.972272e-01	5.902012e-02	1.845959e-05	0.000000e+00	0.000000e+00	0.000000e+00	0.000000e+00	
1.002647e+00	-3.687834e-04	1.290675e-01	-4.150181e-01	1.375732e+00	2.780896e+04	1.112039e+04	3.001466e+02	8.005117e-02	3.205640e-02	1.846610e-05	0.000000e+00	0.000000e+00	0.000000e+00	0.000000e+00	
1.002149e+00	-6.269935e-04	1.290400e-01	-1.579491e-01	1.800340e+00	2.780620e+04	1.111742e+04	3.001303e+02	5.167641e-02	4.032658e-02	1.846533e-05	0.000000e+00	0.000000e+00	0.000000e+00	0.000000e+00	
1.001394e+00	-1.371198e-03	1.290321e-01	8.198690e-01	3.659064e+00	2.781482e+04	1.110413e+04	2.997901e+02	-7.521444e-02	8.372435e-02	1.844923e-05	0.000000e+00	0.000000e+00	0.000000e+00	0.000000e+00	
1.001933e+00	-1.967288e-03	1.288912e-01	1.032901e+00	2.314264e+00	2.777733e+04	1.110097e+04	3.000321e+02	-1.054902e-01	5.662430e-02	1.846068e-05	0.000000e+00	0.000000e+00	0.000000e+00	0.000000e+00	
1.001491e+00	-1.789900e-03	1.289793e-01	1.027355e+00	3.019897e+00	2.779995e+04	1.110420e+04	2.999148e+02	-7.455823e-02	7.123683e-02	1.845513e-05	0.000000e+00	0.000000e+00	0.000000e+00	0.000000e+00	
1.002101e+00	-2.403850e-03	1.288528e-01	1.338748e+00	2.105867e+00	2.776983e+04	1.109827e+04	3.000487e+02	-1.312734e-01	5.576969e-02	1.846147e-05	0.000000e+00	0.000000e+00	0.000000e+00	0.000000e+00	
1.002276e+00	-2.894060e-03	1.289107e-01	1.632796e+00	1.946638e+00	2.778365e+04	1.110344e+04	3.000537e+02	-8.181907e-02	5.675772e-02	1.846170e-05	0.000000e+00	0.000000e+00	0.000000e+00	0.000000e+00	
1.002893e+00	-3.033730e-03	1.289511e-01	1.665776e+00	1.752997e+00	2.779215e+04	1.110779e+04	3.000771e+02	-4.027415e-02	5.400154e-02	1.846281e-05	0.000000e+00	0.000000e+00	0.000000e+00	0.000000e+00	
1.003312e+00	-2.580026e-03	1.289244e-01	1.433086e+00	1.670696e+00	2.778433e+04	1.110622e+04	3.000968e+02	-5.531210e-02	4.916211e-02	1.846374e-05	0.000000e+00	0.000000e+00	0.000000e+00	0.000000e+00	
1.003363e+00	-1.565277e-03	1.290201e-01	9.676934e-01	1.521991e+00	2.780125e+04	1.111546e+04	3.001237e+02	3.295230e-02	4.025113e-02	1.846501e-05	0.000000e+00	0.000000e+00	0.000000e+00	0.000000e+00	
1.003716e+00	-7.916657e-04	1.290531e-01	5.171053e-01	1.433036e+00	2.780629e+04	1.111892e+04	3.001405e+02	6.604070e-02	3.399047e-02	1.846581e-05	0.000000e+00	0.000000e+00	0.000000e+00	0.000000e+00	
1.003715e+00	-2.082909e-03	1.289587e-01	1.252054e+00	1.560652e+00	2.778982e+04	1.110972e+04	3.001117e+02	-2.186788e-02	4.467523e-02	1.846445e-05	0.000000e+00	0.000000e+00	0.000000e+00	0.000000e+00	
1.003193e+00	-1.433938e-04	1.288625e-01	-2.779096e-01	1.272190e+00	2.776299e+04	1.110256e+04	3.001423e+02	-9.022919e-02	2.909616e-02	1.846589e-05	0.000000e+00	0.000000e+00	0.000000e+00	0.000000e+00	
1.002812e+00	2.073135e-04	1.291470e-01	-9.990130e-01	9.626621e-01	2.782205e+04	1.112584e+04	3.001089e+02	1.321553e-01	3.093243e-02	1.846432e-05	0.000000e+00	0.000000e+00	0.000000e+00	0.000000e+00	
1.001749e+00	-8.219416e-04	1.294303e-01	-2.788854e-01	2.408245e+00	2.789329e+04	1.114823e+04	3.000547e+02	3.461073e-01	5.393969e-02	1.846175e-05	0.000000e+00	0.000000e+00	0.000000e+00	0.000000e+00	
1.001385e+00	-1.009800e-03	1.292484e-01	-8.515170e-02	3.787280e+00	2.786224e+04	1.112269e+04	2.997886e+02	1.020734e-01	8.444144e-02	1.844916e-05	0.000000e+00	0.000000e+00	0.000000e+00	0.000000e+00	
1.002360e+00	5.621525e-04	1.284937e-01	-4.032176e-01	9.911654e-01	2.767848e+04	1.106961e+04	3.001102e+02	-4.050823e-01	2.397896e-02	1.846438e-05	0.000000e+00	0.000000e+00	0.000000e+00	0.000000e+00	
1.002276e+00	7.394801e-05	1.287448e-01	-1.108872e+00	9.778119e-01	2.773778e+04	1.109172e+04	3.001231e+02	-1.938596e-01	3.306499e-02	1.846498e-05	0.000000e+00	0.000000e+00	0.000000e+00	0.000000e+00	
1.002185e+00	-3.186258e-04	1.286056e-01	-9.205166e-01	1.322862e+00	2.771120e+04	1.108044e+04	3.001424e+02	-3.015895e-01	3.608193e-02	1.846590e-05	0.000000e+00	0.000000e+00	0.000000e+00	0.000000e+00	
1.001750e+00	-4.573992e-04	1.293862e-01	-1.466043e+00	1.769629e+00	2.788330e+04	1.114516e+04	3.000742e+02	3.167156e-01	5.114483e-02	1.846267e-05	0.000000e+00	0.000000e+00	0.000000e+00	0.000000e+00	
1.001040e+00	-1.172163e-03	1.283830e-01	7.224620e-01	5.194280e+00	2.768851e+04	1.103256e+04	2.993636e+02	-7.590577e-01	1.177688e-01	1.842903e-05	0.000000e+00	0.000000e+00	0.000000e+00	0.000000e+00	
1.003564e+00	-3.225669e-03	1.289703e-01	1.711517e+00	1.651339e+00	2.779657e+04	1.110986e+04	3.000883e+02	-2.055777e-02	5.310064e-02	1.846334e-05	0.000000e+00	0.000000e+00	0.000000e+00	0.000000e+00	
1.001093e+00	-1.602980e-03	1.290700e-01	1.492802e+00	4.513675e+00	2.783213e+04	1.109783e+04	2.995320e+02	-1.354597e-01	1.061635e-01	1.843701e-05	0.000000e+00	0.000000e+00	0.000000e+00	0.000000e+00	
1.000726e+00	-1.408956e-03	1.279188e-01	2.393083e+00	6.477513e+00	2.761025e+04	1.096955e+04	2.987341e+02	-1.361095e+00	1.557993e-01	1.839920e-05	0.000000e+00	0.000000e+00	0.000000e+00	0.000000e+00	
1.001582e+00	-2.257243e-03	1.290931e-01	1.295896e+00	2.645960e+00	2.782402e+04	1.111616e+04	2.999730e+02	3.965961e-02	6.573222e-02	1.845788e-05	0.000000e+00	0.000000e+00	0.000000e+00	0.000000e+00	
1.001139e+00	-2.076556e-03	1.281755e-01	1.716984e+00	3.388200e+00	2.763233e+04	1.103042e+04	2.997901e+02	-7.795198e-01	8.537674e-02	1.844923e-05	0.000000e+00	0.000000e+00	0.000000e+00	0.000000e+00	
1.001715e+00	-2.775849e-03	1.289109e-01	1.706632e+00	2.251627e+00	2.778521e+04	1.110170e+04	3.000062e+02	-9.849665e-02	6.311951e-02	1.845945e-05	0.000000e+00	0.000000e+00	0.000000e+00	0.000000e+00	
1.001915e+00	-3.278742e-03	1.289362e-01	1.926672e+00	1.980294e+00	2.779139e+04	1.110471e+04	3.000286e+02	-6.968301e-02	6.171068e-02	1.846052e-05	0.000000e+00	0.000000e+00	0.000000e+00	0.000000e+00	
1.002503e+00	-3.462309e-03	1.289687e-01	1.925032e+00	1.782413e+00	2.779798e+04	1.110852e+04	3.000558e+02	-3.334222e-02	5.857962e-02	1.846180e-05	0.000000e+00	0.000000e+00	0.000000e+00	0.000000e+00	
1.003369e+00	-3.646370e-03	1.289628e-01	1.970913e+00	1.640764e+00	2.779714e+04	1.110866e+04	3.000733e+02	-3.201107e-02	5.726296e-02	1.846263e-05	0.000000e+00	0.000000e+00	0.000000e+00	0.000000e+00	
1.004029e+00	-2.697978e-03	1.289453e-01	1.534512e+00	1.577990e+00	2.778947e+04	1.110827e+04	3.001036e+02	-3.568246e-02	4.915265e-02	1.846406e-05	0.000000e+00	0.000000e+00	0.000000e+00	0.000000e+00	
1.003852e+00	-5.073607e-05	1.290376e-01	-2.253152e-01	1.318912e+00	2.780003e+04	1.111724e+04	3.001310e+02	4.995986e-02	2.985669e-02	1.846536e-05	0.000000e+00	0.000000e+00	0.000000e+00	0.000000e+00	
1.004046e+00	-1.474272e-03	1.288847e-01	1.016743e+00	1.475413e+00	2.777193e+04	1.110379e+04	3.001237e+02	-7.852470e-02	4.003072e-02	1.846501e-05	0.000000e+00	0.000000e+00	0.000000e+00	0.000000e+00	
1.004438e+00	-6.862421e-04	1.289466e-01	5.363111e-01	1.422037e+00	2.778297e+04	1.110960e+04	3.001365e+02	-2.296406e-02	3.393677e-02	1.846562e-05	0.000000e+00	0.000000e+00	0.000000e+00	0.000000e+00	
1.004467e+00	-2.085391e-03	1.289964e-01	1.316825e+00	1.512476e+00	2.779823e+04	1.111306e+04	3.001140e+02	1.004528e-02	4.476416e-02	1.846456e-05	0.000000e+00	0.000000e+00	0.000000e+00	0.000000e+00	
1.003390e+00	4.252801e-04	1.289303e-01	-8.176962e-01	1.107160e+00	2.777380e+04	1.110658e+04	3.000928e+02	-5.185066e-02	3.074025e-02	1.846355e-05	0.000000e+00	0.000000e+00	0.000000e+00	0.000000e+00	
1.002907e+00	7.734998e-04	1.290949e-01	-5.065287e-01	1.034123e+00	2.780534e+04	1.112008e+04	3.000746e+02	7.716189e-02	2.568598e-02	1.846269e-05	0.000000e+00	0.000000e+00	0.000000e+00	0.000000e+00	
1.004072e+00	6.345264e-04	1.289635e-01	-8.616473e-01	1.137150e+00	2.778028e+04	1.110896e+04	3.000799e+02	-2.915113e-02	3.185711e-02	1.846294e-05	0.000000e+00	0.000000e+00	0.000000e+00	0.000000e+00	
1.002432e+00	1.070272e-03	1.293440e-01	1.546120e+00	2.413567e+00	2.786673e+04	1.113399e+04	2.998711e+02	2.100002e-01	6.383548e-02	1.845306e-05	0.000000e+00	0.000000e+00	0.000000e+00	0.000000e+00	
1.001389e+00	-6.582422e-04	1.279375e-01	-1.267825e+00	2.623837e+00	2.757488e+04	1.101668e+04	2.999737e+02	-9.108165e-01	6.560158e-02	1.845792e-05	0.000000e+00	0.000000e+00	0.000000e+00	0.000000e+00	
1.001054e+00	-8.551642e-04	1.286394e-01	-1.853792e+00	4.727424e+00	2.774282e+04	1.105704e+04	2.994299e+02	-5.251659e-01	1.137925e-01	1.843218e-05	0.000000e+00	0.000000e+00	0.000000e+00	0.000000e+00	
1.001945e+00	8.097707e-04	1.296801e-01	2.172079e+00	3.380984e+00	2.795181e+04	1.115582e+04	2.996805e+02	4.185665e-01	8.929379e-02	1.844404e-05	0.000000e+00	0.000000e+00	0.000000e+00	0.000000e+00	
1.001895e+00	3.534711e-04	1.291144e-01	-2.311364e-01	1.523120e+00	2.781603e+04	1.112274e+04	3.001010e+02	1.025062e-01	3.435746e-02	1.846394e-05	0.000000e+00	0.000000e+00	0.000000e+00	0.000000e+00	
1.001820e+00	-5.816175e-05	1.296460e-01	-1.708933e+00	1.194269e+00	2.793606e+04	1.116772e+04	3.000792e+02	5.322867e-01	4.630796e-02	1.846291e-05	0.000000e+00	0.000000e+00	0.000000e+00	0.000000e+00	
1.001456e+00	-2.686273e-04	1.280691e-01	-1.889370e+00	1.782703e+00	2.760023e+04	1.102955e+04	3.000157e+02	-7.877780e-01	5.841365e-02	1.845991e-05	0.000000e+00	0.000000e+00	0.000000e+00	0.000000e+00	
1.000704e+00	-1.001827e-03	1.295986e-01	-1.509960e+00	7.394168e+00	2.797902e+04	1.110372e+04	2.984684e+02	-7.920194e-02	1.681367e-01	1.838660e-05	0.000000e+00	0.000000e+00	0.000000e+00	0.000000e+00	
1.000349e+00	-1.279029e-03	1.283419e-01	2.458425e+00	9.835282e+00	2.775849e+04	1.094323e+04	2.970350e+02	-1.612491e+00	2.286263e-01	1.831853e-05	0.000000e+00	0.000000e+00	0.000000e+00	0.000000e+00	
3.124498e-03	-5.674412e-02	1.248866e-01	3.227531e+00	-1.129420e+01	2.710433e+04	1.062077e+04	2.962583e+02	-4.693355e+00	2.725848e-01	1.828158e-05	0.000000e+00	0.000000e+00	0.000000e+00	0.000000e+00	
2.537646e-03	-5.451554e-02	1.248642e-01	2.850048e+00	-1.140505e+01	2.710018e+04	1.061871e+04	2.962542e+02	-4.713018e+00	2.728550e-01	1.828138e-05	0.000000e+00	0.000000e+00	0.000000e+00	0.000000e+00	
2.003081e-03	-5.227926e-02	1.251022e-01	2.451817e+00	-1.138945e+01	2.714922e+04	1.064269e+04	2.963583e+02	-4.483899e+00	2.698469e-01	1.828634e-05	0.000000e+00	0.000000e+00	0.000000e+00	0.000000e+00	
1.004411e+00	-3.697210e-03	1.289622e-01	1.925951e+00	1.557348e+00	2.779674e+04	1.110918e+04	3.000890e+02	-2.699993e-02	5.530414e-02	1.846337e-05	0.000000e+00	0.000000e+00	0.000000e+00	0.000000e+00	
1.000729e+00	-1.899906e-03	1.293869e-01	2.385568e+00	4.767665e+00	2.790755e+04	1.111909e+04	2.993707e+02	6.764624e-02	1.187901e-01	1.842937e-05	0.000000e+00	0.000000e+00	0.000000e+00	0.000000e+00	
1.000387e+00	-1.646564e-03	1.273219e-01	4.916334e+00	5.964780e+00	2.749593e+04	1.090452e+04	2.983553e+02	-1.982385e+00	1.753260e-01	1.838123e-05	0.000000e+00	0.000000e+00	0.000000e+00	0.000000e+00	
1.001189e+00	-2.544867e-03	1.288518e-01	1.924617e+00	2.846618e+00	2.777672e+04	1.109236e+04	2.998911e+02	-1.877229e-01	7.681669e-02	1.845401e-05	0.000000e+00	0.000000e+00	0.000000e+00	0.000000e+00	
1.000747e+00	-2.359538e-03	1.292183e-01	2.131169e+00	3.428151e+00	2.786009e+04	1.111882e+04	2.997539e+02	6.504699e-02	9.000360e-02	1.844752e-05	0.000000e+00	0.000000e+00	0.000000e+00	0.000000e+00	
1.001331e+00	-3.192109e-03	1.288906e-01	2.104080e+00	2.303471e+00	2.778407e+04	1.109853e+04	2.999678e+02	-1.287985e-01	6.971385e-02	1.845764e-05	0.000000e+00	0.000000e+00	0.000000e+00	0.000000e+00	
1.001598e+00	-3.729248e-03	1.288507e-01	2.174388e+00	2.006694e+00	2.777517e+04	1.109648e+04	3.000052e+02	-1.483509e-01	6.613369e-02	1.845941e-05	0.000000e+00	0.000000e+00	0.000000e+00	0.000000e+00	
1.000045e+00	-1.490321e-03	1.294564e-01	6.448026e+00	5.625365e+00	2.796754e+04	1.107389e+04	2.979937e+02	-3.641447e-01	1.910047e-01	1.836408e-05	0.000000e+00	0.000000e+00	0.000000e+00	0.000000e+00	
9.997621e-01	-1.104660e-03	1.310133e-01	7.247681e+00	2.287043e+00	2.828322e+04	1.122511e+04	2.984735e+02	1.080633e+00	1.674921e-01	1.838684e-05	0.000000e+00	0.000000e+00	0.000000e+00	0.000000e+00	
1.002221e+00	-3.826851e-03	1.289286e-01	2.163373e+00	1.832263e+00	2.779145e+04	1.110411e+04	3.000302e+02	-7.541647e-02	6.332517e-02	1.846059e-05	0.000000e+00	0.000000e+00	0.000000e+00	0.000000e+00	
1.002876e+00	-4.158281e-03	1.289282e-01	2.214071e+00	1.674281e+00	2.779173e+04	1.110474e+04	3.000481e+02	-6.944874e-02	6.200168e-02	1.846144e-05	0.000000e+00	0.000000e+00	0.000000e+00	0.000000e+00	
1.003900e+00	-4.444039e-03	1.289626e-01	2.298165e+00	1.559161e+00	2.780045e+04	1.110822e+04	3.000619e+02	-3.621118e-02	6.201272e-02	1.846209e-05	0.000000e+00	0.000000e+00	0.000000e+00	0.000000e+00	
1.004967e+00	-2.923268e-03	1.289728e-01	1.629394e+00	1.505139e+00	2.779596e+04	1.111075e+04	3.001066e+02	-1.199034e-02	4.952378e-02	1.846421e-05	0.000000e+00	0.000000e+00	0.000000e+00	0.000000e+00	
1.004621e+00	9.347155e-05	1.289252e-01	-2.183583e-01	1.306061e+00	2.777538e+04	1.110743e+04	3.001277e+02	-4.373094e-02	2.957401e-02	1.846520e-05	0.000000e+00	0.000000e+00	0.000000e+00	0.000000e+00	
1.004845e+00	-1.381657e-03	1.290203e-01	1.012514e+00	1.468279e+00	2.780110e+04	1.111551e+04	3.001246e+02	3.345969e-02	3.980393e-02	1.846506e-05	0.000000e+00	0.000000e+00	0.000000e+00	0.000000e+00	
1.005259e+00	-5.564546e-04	1.289602e-01	4.853300e-01	1.406696e+00	2.778559e+04	1.111080e+04	3.001373e+02	-1.152269e-02	3.322442e-02	1.846566e-05	0.000000e+00	0.000000e+00	0.000000e+00	0.000000e+00	
1.005375e+00	-2.105816e-03	1.289472e-01	1.352867e+00	1.458554e+00	2.778759e+04	1.110890e+04	3.001160e+02	-2.972606e-02	4.442343e-02	1.846465e-05	0.000000e+00	0.000000e+00	0.000000e+00	0.000000e+00	
1.005567e+00	-3.736794e-03	1.289601e-01	1.943275e+00	1.473119e+00	2.779644e+04	1.110936e+04	3.000984e+02	-2.533485e-02	5.444910e-02	1.846382e-05	0.000000e+00	0.000000e+00	0.000000e+00	0.000000e+00	
1.004890e+00	9.262336e-04	1.288881e-01	-7.383390e-01	1.078386e+00	2.776365e+04	1.110281e+04	3.000893e+02	-8.788976e-02	2.919879e-02	1.846339e-05	0.000000e+00	0.000000e+00	0.000000e+00	0.000000e+00	
1.003509e+00	1.067686e-03	1.286773e-01	-4.539455e-01	1.234218e+00	2.771435e+04	1.108305e+04	3.000461e+02	-2.766330e-01	2.943053e-02	1.846134e-05	0.000000e+00	0.000000e+00	0.000000e+00	0.000000e+00	
1.002959e+00	1.410788e-03	1.290859e-01	1.010214e+00	1.922541e+00	2.780374e+04	1.111419e+04	2.999365e+02	2.084309e-02	4.845925e-02	1.845616e-05	0.000000e+00	0.000000e+00	0.000000e+00	0.000000e+00	
1.004275e+00	1.544010e-03	1.291371e-01	-3.301428e-01	1.237254e+00	2.781328e+04	1.112277e+04	3.000490e+02	1.028361e-01	2.855606e-02	1.846148e-05	0.000000e+00	0.000000e+00	0.000000e+00	0.000000e+00	
1.002675e+00	1.722872e-03	1.290136e-01	4.165019e+00	4.183706e+00	2.782701e+04	1.107678e+04	2.990944e+02	-3.365794e-01	1.319829e-01	1.841628e-05	0.000000e+00	0.000000e+00	0.000000e+00	0.000000e+00	
1.001999e+00	1.343178e-03	1.299072e-01	5.011869e+00	5.829046e+00	2.805100e+04	1.112942e+04	2.984485e+02	1.663410e-01	1.708694e-01	1.838566e-05	0.000000e+00	0.000000e+00	0.000000e+00	0.000000e+00	
1.001123e+00	-4.556754e-04	1.319694e-01	-4.020161e+00	2.844394e+00	2.845899e+04	1.134684e+04	2.995243e+02	2.243657e+00	1.075568e-01	1.843664e-05	0.000000e+00	0.000000e+00	0.000000e+00	0.000000e+00	
1.000804e+00	-6.182797e-04	1.254241e-01	-3.970645e+00	5.233381e+00	2.706852e+04	1.075860e+04	2.988167e+02	-3.376563e+00	1.511401e-01	1.840312e-05	0.000000e+00	0.000000e+00	0.000000e+00	0.000000e+00	
1.001564e+00	1.053951e-03	1.294971e-01	5.989096e+00	7.522758e+00	2.800360e+04	1.105864e+04	2.974897e+02	-5.098714e-01	2.147508e-01	1.834014e-05	0.000000e+00	0.000000e+00	0.000000e+00	0.000000e+00	
1.001509e+00	6.002044e-04	1.291027e-01	3.916433e+00	5.010916e+00	2.785698e+04	1.108013e+04	2.989786e+02	-3.045510e-01	1.421160e-01	1.841079e-05	0.000000e+00	0.000000e+00	0.000000e+00	0.000000e+00	
1.001486e+00	1.463547e-04	1.279247e-01	2.493587e-01	1.953914e+00	2.756271e+04	1.101902e+04	3.000674e+02	-8.884416e-01	4.434053e-02	1.846235e-05	0.000000e+00	0.000000e+00	0.000000e+00	0.000000e+00	
1.001151e+00	-4.749711e-05	1.287232e-01	-4.272354e-01	2.638332e+00	2.773770e+04	1.108398e+04	2.999641e+02	-2.677647e-01	5.980120e-02	1.845746e-05	0.000000e+00	0.000000e+00	0.000000e+00	0.000000e+00	
1.000463e+00	-6.921416e-04	1.334968e-01	-9.893422e+00	6.019846e+00	2.889806e+04	1.135829e+04	2.963962e+02	2.353057e+00	2.513554e-01	1.828814e-05	0.000000e+00	0.000000e+00	0.000000e+00	0.000000e+00	
1.000000e+00	-1.000000e-03	1.133560e-01	-1.505213e+00	6.110995e+00	2.446420e+04	9.715794e+03	2.985823e+02	-1.333968e+01	1.602790e-01	1.839200e-05	0.000000e+00	0.000000e+00	0.000000e+00	0.000000e+00	
4.487486e-03	-6.129641e-02	1.249163e-01	3.637628e+00	-1.126479e+01	2.711285e+04	1.062079e+04	2.961883e+02	-4.693216e+00	2.746695e-01	1.827824e-05	0.000000e+00	0.000000e+00	0.000000e+00	0.000000e+00	
6.075662e-03	-6.587158e-02	1.247036e-01	4.174476e+00	-1.123941e+01	2.707095e+04	1.059783e+04	2.960522e+02	-4.912521e+00	2.787359e-01	1.827176e-05	0.000000e+00	0.000000e+00	0.000000e+00	0.000000e+00	
-2.066543e-05	-5.613552e-02	1.252316e-01	2.990771e+00	-1.111830e+01	2.717502e+04	1.065830e+04	2.964863e+02	-4.334772e+00	2.663443e-01	1.829243e-05	0.000000e+00	0.000000e+00	0.000000e+00	0.000000e+00	
-1.537786e-04	-6.005202e-02	1.252595e-01	3.408507e+00	-1.098387e+01	2.718082e+04	1.066115e+04	2.964992e+02	-4.307616e+00	2.659797e-01	1.829304e-05	0.000000e+00	0.000000e+00	0.000000e+00	0.000000e+00	
-4.701236e-04	-5.364925e-02	1.252788e-01	2.642150e+00	-1.114092e+01	2.718376e+04	1.066421e+04	2.965387e+02	-4.278349e+00	2.647500e-01	1.829492e-05	0.000000e+00	0.000000e+00	0.000000e+00	0.000000e+00	
-2.675032e-03	-5.518152e-02	1.254938e-01	2.791058e+00	-1.094562e+01	2.722742e+04	1.068761e+04	2.966805e+02	-4.054722e+00	2.606778e-01	1.830167e-05	0.000000e+00	0.000000e+00	0.000000e+00	0.000000e+00	
1.078855e-03	-4.766987e-02	1.251332e-01	1.959709e+00	-1.132479e+01	2.715264e+04	1.064993e+04	2.964863e+02	-4.414736e+00	2.660808e-01	1.829243e-05	0.000000e+00	0.000000e+00	0.000000e+00	0.000000e+00	
-2.089140e-03	-4.996435e-02	1.254755e-01	2.204164e+00	-1.101762e+01	2.722149e+04	1.068737e+04	2.967170e+02	-4.057067e+00	2.593166e-01	1.830340e-05	0.000000e+00	0.000000e+00	0.000000e+00	0.000000e+00	
1.005013e+00	-4.617326e-03	1.289838e-01	2.277945e+00	1.467907e+00	2.780508e+04	1.111064e+04	3.000782e+02	-1.301822e-02	6.050048e-02	1.846286e-05	0.000000e+00	0.000000e+00	0.000000e+00	0.000000e+00	
1.001525e+00	-4.193396e-03	1.289292e-01	2.425064e+00	1.913712e+00	2.779433e+04	1.110293e+04	2.999967e+02	-8.675056e-02	6.900638e-02	1.845901e-05	0.000000e+00	0.000000e+00	0.000000e+00	0.000000e+00	
1.000300e+00	-2.225608e-03	1.280444e-01	3.332646e+00	3.910650e+00	2.761801e+04	1.100597e+04	2.994320e+02	-1.013100e+00	1.156755e-01	1.843227e-05	0.000000e+00	0.000000e+00	0.000000e+00	0.000000e+00	
1.000757e+00	-3.045136e-03	1.289741e-01	2.474793e+00	2.816797e+00	2.780731e+04	1.110112e+04	2.998437e+02	-1.039904e-01	8.374863e-02	1.845176e-05	0.000000e+00	0.000000e+00	0.000000e+00	0.000000e+00	
1.001000e+00	-3.671121e-03	1.288622e-01	2.376257e+00	2.178015e+00	2.778045e+04	1.109605e+04	2.999669e+02	-1.524140e-01	7.204501e-02	1.845760e-05	0.000000e+00	0.000000e+00	0.000000e+00	0.000000e+00	
9.996103e-01	-1.963798e-03	1.271811e-01	4.383437e+00	2.694114e+00	2.743160e+04	1.093101e+04	2.994113e+02	-1.729297e+00	1.166257e-01	1.843129e-05	0.000000e+00	0.000000e+00	0.000000e+00	0.000000e+00	
9.990485e-01	-1.418575e-03	1.277437e-01	4.633995e+00	2.265671e+00	2.755230e+04	1.097926e+04	2.994085e+02	-1.268245e+00	1.164070e-01	1.843116e-05	0.000000e+00	0.000000e+00	0.000000e+00	0.000000e+00	
1.002245e+00	-4.530659e-03	1.289910e-01	2.414141e+00	1.709505e+00	2.780727e+04	1.110934e+04	3.000263e+02	-2.547603e-02	6.604323e-02	1.846041e-05	0.000000e+00	0.000000e+00	0.000000e+00	0.000000e+00	
1.002917e+00	-4.939734e-03	1.289738e-01	2.449184e+00	1.612763e+00	2.780422e+04	1.110835e+04	3.000395e+02	-3.491340e-02	6.547826e-02	1.846103e-05	0.000000e+00	0.000000e+00	0.000000e+00	0.000000e+00	
1.001707e+00	-5.107777e-03	1.288443e-01	2.628461e+00	1.746084e+00	2.777796e+04	1.109573e+04	2.999998e+02	-1.555428e-01	7.053476e-02	1.845915e-05	0.000000e+00	0.000000e+00	0.000000e+00	0.000000e+00	
1.004676e+00	-5.690277e-03	1.289887e-01	2.573208e+00	1.441423e+00	2.780927e+04	1.111022e+04	3.000553e+02	-1.709358e-02	6.584700e-02	1.846178e-05	0.000000e+00	0.000000e+00	0.000000e+00	0.000000e+00	
1.003643e+00	-5.470684e-03	1.289847e-01	2.593534e+00	1.524524e+00	2.780859e+04	1.110940e+04	3.000425e+02	-2.488824e-02	6.716764e-02	1.846117e-05	0.000000e+00	0.000000e+00	0.000000e+00	0.000000e+00	
1.006032e+00	-2.811414e-03	1.289745e-01	1.619939e+00	1.438918e+00	2.779596e+04	1.111110e+04	3.001122e+02	-8.633716e-03	4.837364e-02	1.846447e-05	0.000000e+00	0.000000e+00	0.000000e+00	0.000000e+00	
1.005495e+00	2.698627e-04	1.290332e-01	-1.738722e-01	1.283903e+00	2.779852e+04	1.111681e+04	3.001296e+02	4.584454e-02	2.891172e-02	1.846530e-05	0.000000e+00	0.000000e+00	0.000000e+00	0.000000e+00	
1.005748e+00	-1.268266e-03	1.289617e-01	9.700282e-01	1.426416e+00	2.778804e+04	1.111060e+04	3.001284e+02	-1.342334e-02	3.851458e-02	1.846524e-05	0.000000e+00	0.000000e+00	0.000000e+00	0.000000e+00	
1.006187e+00	-4.003204e-04	1.289855e-01	4.784339e-01	1.373243e+00	2.779080e+04	1.111304e+04	3.001389e+02	9.870349e-03	3.246183e-02	1.846574e-05	0.000000e+00	0.000000e+00	0.000000e+00	0.000000e+00	
1.006336e+00	-1.862046e-03	1.289994e-01	1.286293e+00	1.409612e+00	2.779809e+04	1.111359e+04	3.001214e+02	1.512732e-02	4.259497e-02	1.846491e-05	0.000000e+00	0.000000e+00	0.000000e+00	0.000000e+00	
1.006723e+00	-3.686843e-03	1.289768e-01	1.894431e+00	1.396780e+00	2.779922e+04	1.111110e+04	3.001067e+02	-8.678725e-03	5.254738e-02	1.846421e-05	0.000000e+00	0.000000e+00	0.000000e+00	0.000000e+00	
1.006225e+00	-4.749125e-03	1.289999e-01	2.241950e+00	1.393121e+00	2.780821e+04	1.111248e+04	3.000903e+02	4.541090e-03	5.891997e-02	1.846344e-05	0.000000e+00	0.000000e+00	0.000000e+00	0.000000e+00	
1.005846e+00	1.011427e-03	1.289704e-01	-6.058558e-01	1.080041e+00	2.778154e+04	1.111024e+04	3.000984e+02	-1.691149e-02	2.764893e-02	1.846382e-05	0.000000e+00	0.000000e+00	0.000000e+00	0.000000e+00	
1.005261e+00	1.778684e-03	1.288857e-01	-2.463109e-01	1.057105e+00	2.775900e+04	1.110177e+04	3.000667e+02	-9.779090e-02	2.425134e-02	1.846232e-05	0.000000e+00	0.000000e+00	0.000000e+00	0.000000e+00	
1.003554e+00	2.065465e-03	1.287027e-01	2.536689e+00	2.604036e+00	2.773365e+04	1.107292e+04	2.997126e+02	-3.734284e-01	8.138751e-02	1.844556e-05	0.000000e+00	0.000000e+00	0.000000e+00	0.000000e+00	
1.004548e+00	2.459478e-03	1.289750e-01	2.122927e+00	2.082745e+00	2.778718e+04	1.110116e+04	2.998424e+02	-1.036545e-01	6.642618e-02	1.845171e-05	0.000000e+00	0.000000e+00	0.000000e+00	0.000000e+00	
1.002118e+00	2.025095e-03	1.305707e-01	7.272459e+00	7.774819e+00	2.826313e+04	1.113165e+04	2.969917e+02	1.876723e-01	2.360034e-01	1.831647e-05	0.000000e+00	0.000000e+00	0.000000e+00	0.000000e+00	
1.002888e+00	2.562778e-03	1.308540e-01	6.877873e+00	6.553229e+00	2.829769e+04	1.118114e+04	2.976659e+02	6.604663e-01	2.099051e-01	1.834851e-05	0.000000e+00	0.000000e+00	0.000000e+00	0.000000e+00	
1.001674e+00	1.575504e-03	1.318756e-01	7.353813e+00	9.099085e+00	2.857206e+04	1.122125e+04	2.964196e+02	1.043697e+00	2.570339e-01	1.828925e-05	0.000000e+00	0.000000e+00	0.000000e+00	0.000000e+00	
1.001204e+00	1.345597e-03	1.312967e-01	7.705896e+00	1.028976e+01	2.848130e+04	1.114078e+04	2.955917e+02	2.749337e-01	2.840763e-01	1.824982e-05	0.000000e+00	0.000000e+00	0.000000e+00	0.000000e+00	
1.000847e+00	-1.986380e-04	1.249894e-01	-1.811259e-01	2.754032e+00	2.693215e+04	1.076067e+04	2.999139e+02	-3.356737e+00	6.360422e-02	1.845509e-05	0.000000e+00	0.000000e+00	0.000000e+00	0.000000e+00	
1.000593e+00	-3.594798e-04	1.263043e-01	-2.655324e+00	4.123216e+00	2.722583e+04	1.085225e+04	2.993174e+02	-2.481784e+00	1.119540e-01	1.842685e-05	0.000000e+00	0.000000e+00	0.000000e+00	0.000000e+00	
1.001126e+00	8.643907e-04	1.326793e-01	6.723788e+00	9.986655e+00	2.874855e+04	1.128093e+04	2.961912e+02	1.613956e+00	2.630025e-01	1.827838e-05	0.000000e+00	0.000000e+00	0.000000e+00	0.000000e+00	
1.001139e+00	3.323205e-04	1.326768e-01	4.502600e+00	7.234642e+00	2.866075e+04	1.135484e+04	2.981373e+02	2.320075e+00	1.855481e-01	1.837089e-05	0.000000e+00	0.000000e+00	0.000000e+00	0.000000e+00	
1.000843e+00	1.516016e-04	1.303641e-01	7.651291e+00	8.929891e+00	2.823335e+04	1.108119e+04	2.961138e+02	-2.944719e-01	2.614880e-01	1.827470e-05	0.000000e+00	0.000000e+00	0.000000e+00	0.000000e+00	
1.000364e+00	-3.374867e-04	1.243125e-01	4.651396e+00	1.633485e+01	2.709402e+04	1.037352e+04	2.906976e+02	-7.055684e+00	3.997243e-01	1.801564e-05	0.000000e+00	0.000000e+00	0.000000e+00	0.000000e+00	
1.000000e+00	0.000000e+00	2.420740e-01	1.936613e+01	1.029321e+02	5.858256e+04	1.436963e+04	2.067892e+02	3.112394e+01	1.500871e+00	1.366819e-05	0.000000e+00	0.000000e+00	0.000000e+00	0.000000e+00	
7.932309e-04	-6.510497e-02	1.252020e-01	3.910862e+00	-1.091476e+01	2.717073e+04	1.065356e+04	2.964243e+02	-4.380111e+00	2.683033e-01	1.828948e-05	0.000000e+00	0.000000e+00	0.000000e+00	0.000000e+00	
7.917903e-03	-7.053576e-02	1.246122e-01	4.690120e+00	-1.117581e+01	2.705448e+04	1.058603e+04	2.959395e+02	-5.025298e+00	2.820291e-01	1.826639e-05	0.000000e+00	0.000000e+00	0.000000e+00	0.000000e+00	
1.006240e-02	-7.536359e-02	1.244908e-01	5.214196e+00	-1.109417e+01	2.703186e+04	1.057133e+04	2.958167e+02	-5.165730e+00	2.855856e-01	1.826055e-05	0.000000e+00	0.000000e+00	0.000000e+00	0.000000e+00	
1.251909e-02	-8.032167e-02	1.243694e-01	5.742304e+00	-1.098942e+01	2.700937e+04	1.055651e+04	2.956904e+02	-5.307295e+00	2.892108e-01	1.825453e-05	0.000000e+00	0.000000e+00	0.000000e+00	0.000000e+00	
1.529738e-02	-8.537750e-02	1.242447e-01	6.278660e+00	-1.084775e+01	2.698604e+04	1.054154e+04	2.955673e+02	-5.450393e+00	2.927026e-01	1.824866e-05	0.000000e+00	0.000000e+00	0.000000e+00	0.000000e+00	
1.843145e-02	-9.053064e-02	1.241301e-01	6.816129e+00	-1.065556e+01	2.696439e+04	1.052796e+04	2.954591e+02	-5.580080e+00	2.957236e-01	1.824350e-05	0.000000e+00	0.000000e+00	0.000000e+00	0.000000e+00	
2.196161e-02	-9.578869e-02	1.240390e-01	7.334038e+00	-1.041569e+01	2.694706e+04	1.051717e+04	2.953731e+02	-5.683157e+00	2.980798e-01	1.823940e-05	0.000000e+00	0.000000e+00	0.000000e+00	0.000000e+00	
2.590787e-02	-1.011413e-01	1.239727e-01	7.828016e+00	-1.014959e+01	2.693475e+04	1.050885e+04	2.952974e+02	-5.762635e+00	3.001259e-01	1.823579e-05	0.000000e+00	0.000000e+00	0.000000e+00	0.000000e+00	
3.032086e-02	-1.066203e-01	1.239071e-01	8.307480e+00	-9.861627e+00	2.692257e+04	1.050066e+04	2.952233e+02	-5.840943e+00	3.021212e-01	1.823226e-05	0.000000e+00	0.000000e+00	0.000000e+00	0.000000e+00	
3.519676e-02	-1.121611e-01	1.238386e-01	8.778966e+00	-9.536595e+00	2.690952e+04	1.049246e+04	2.951560e+02	-5.919271e+00	3.039106e-01	1.822905e-05	0.000000e+00	0.000000e+00	0.000000e+00	0.000000e+00	
4.055945e-02	-1.177349e-01	1.237877e-01	9.230924e+00	-9.170575e+00	2.689974e+04	1.048635e+04	2.951053e+02	-5.977671e+00	3.052289e-01	1.822663e-05	0.000000e+00	0.000000e+00	0.000000e+00	0.000000e+00	
4.640551e-02	-1.232897e-01	1.237574e-01	9.653498e+00	-8.768719e+00	2.689377e+04	1.048265e+04	2.950734e+02	-6.013029e+00	3.060146e-01	1.822511e-05	0.000000e+00	0.000000e+00	0.000000e+00	0.000000e+00	
5.272092e-02	-1.287749e-01	1.237479e-01	1.003781e+01	-8.334605e+00	2.689154e+04	1.048150e+04	2.950639e+02	-6.023945e+00	3.061716e-01	1.822466e-05	0.000000e+00	0.000000e+00	0.000000e+00	0.000000e+00	