TITLE = "Visualization of the volumetric solution"
VARIABLES = "x""y""Conservative_1""Conservative_2""Conservative_3""Conservative_4""Pressure""Temperature""C<sub>p</sub>""Mach""<greek>m</greek>""C<sub>f</sub>_x""C<sub>f</sub>_y""h""y<sup>+</sup>"
ZONE NODES= 5233, ELEMENTS= 10216, DATAPACKING=POINT, ZONETYPE=FEQUADRILATERAL
1.002197e+00	-1.304305e-03	1.291003e-01	6.019239e-01	1.965211e+00	2.781866e+04	1.112092e+04	3.000846e+02	8.515868e-02	4.584402e-02	1.846317e-05	0.000000e+00	0.000000e+00	0.000000e+00	0.000000e+00	
1.002614e+00	-9.195523e-04	1.290581e-01	3.953099e-01	1.631894e+00	2.780784e+04	1.111877e+04	3.001248e+02	6.459832e-02	3.746187e-02	1.846507e-05	0.000000e+00	0.000000e+00	0.000000e+00	0.000000e+00	
1.002286e+00	-1.615755e-03	1.289483e-01	7.781303e-01	1.931346e+00	2.778614e+04	1.110773e+04	3.000820e+02	-4.086848e-02	4.649854e-02	1.846304e-05	0.000000e+00	0.000000e+00	0.000000e+00	0.000000e+00	
1.001800e+00	-1.543544e-03	1.289080e-01	7.289064e-01	2.475842e+00	2.777994e+04	1.110164e+04	3.000112e+02	-9.904319e-02	5.766008e-02	1.845969e-05	0.000000e+00	0.000000e+00	0.000000e+00	0.000000e+00	
1.002461e+00	-2.008759e-03	1.289586e-01	9.693658e-01	1.861956e+00	2.778895e+04	1.110875e+04	3.000855e+02	-3.116368e-02	4.687354e-02	1.846321e-05	0.000000e+00	0.000000e+00	0.000000e+00	0.000000e+00	
1.002671e+00	-2.505637e-03	1.289605e-01	1.256322e+00	1.799110e+00	2.779081e+04	1.110886e+04	3.000842e+02	-3.009330e-02	4.899790e-02	1.846314e-05	0.000000e+00	0.000000e+00	0.000000e+00	0.000000e+00	
1.002756e+00	-1.467055e-03	1.289011e-01	7.927511e-01	1.662608e+00	2.777480e+04	1.110465e+04	3.001088e+02	-7.024999e-02	4.114614e-02	1.846431e-05	0.000000e+00	0.000000e+00	0.000000e+00	0.000000e+00	
1.003177e+00	-1.055608e-03	1.289588e-01	6.368398e-01	1.521161e+00	2.778602e+04	1.111019e+04	3.001241e+02	-1.734268e-02	3.682085e-02	1.846503e-05	0.000000e+00	0.000000e+00	0.000000e+00	0.000000e+00	
1.003061e+00	-2.013387e-03	1.289615e-01	1.052795e+00	1.650780e+00	2.778896e+04	1.110964e+04	3.001029e+02	-2.261939e-02	4.371706e-02	1.846403e-05	0.000000e+00	0.000000e+00	0.000000e+00	0.000000e+00	
1.003131e+00	-6.582397e-04	1.289319e-01	2.613960e-01	1.479023e+00	2.777920e+04	1.110818e+04	3.001325e+02	-3.654118e-02	3.354194e-02	1.846543e-05	0.000000e+00	0.000000e+00	0.000000e+00	0.000000e+00	
1.002160e+00	-9.616938e-04	1.288444e-01	3.705317e-01	1.912112e+00	2.776355e+04	1.109953e+04	3.001024e+02	-1.192030e-01	4.352804e-02	1.846401e-05	0.000000e+00	0.000000e+00	0.000000e+00	0.000000e+00	
1.001764e+00	-1.164576e-03	1.287903e-01	4.822978e-01	2.524513e+00	2.775462e+04	1.109159e+04	3.000136e+02	-1.950588e-01	5.747241e-02	1.845980e-05	0.000000e+00	0.000000e+00	0.000000e+00	0.000000e+00	
1.002645e+00	-3.628929e-04	1.290673e-01	-4.980039e-01	1.351190e+00	2.780764e+04	1.111984e+04	3.001324e+02	7.487272e-02	3.212579e-02	1.846543e-05	0.000000e+00	0.000000e+00	0.000000e+00	0.000000e+00	
1.002147e+00	-6.223186e-04	1.290348e-01	-2.482947e-01	1.761992e+00	2.780390e+04	1.111665e+04	3.001218e+02	4.438503e-02	3.970721e-02	1.846493e-05	0.000000e+00	0.000000e+00	0.000000e+00	0.000000e+00	
1.001394e+00	-1.368026e-03	1.290297e-01	7.313984e-01	3.588375e+00	2.781314e+04	1.110447e+04	2.998046e+02	-7.201393e-02	8.176716e-02	1.844992e-05	0.000000e+00	0.000000e+00	0.000000e+00	0.000000e+00	
1.001935e+00	-1.962732e-03	1.288927e-01	9.540039e-01	2.275412e+00	2.777657e+04	1.110118e+04	3.000346e+02	-1.034301e-01	5.512660e-02	1.846080e-05	0.000000e+00	0.000000e+00	0.000000e+00	0.000000e+00	
1.001492e+00	-1.786405e-03	1.289812e-01	9.445772e-01	2.963339e+00	2.779925e+04	1.110470e+04	2.999237e+02	-6.982933e-02	6.945661e-02	1.845555e-05	0.000000e+00	0.000000e+00	0.000000e+00	0.000000e+00	
1.002104e+00	-2.398855e-03	1.288528e-01	1.255838e+00	2.071975e+00	2.776869e+04	1.109836e+04	3.000513e+02	-1.303588e-01	5.414849e-02	1.846159e-05	0.000000e+00	0.000000e+00	0.000000e+00	0.000000e+00	
1.002280e+00	-2.888658e-03	1.289134e-01	1.546917e+00	1.916044e+00	2.778303e+04	1.110380e+04	3.000572e+02	-7.838322e-02	5.500941e-02	1.846187e-05	0.000000e+00	0.000000e+00	0.000000e+00	0.000000e+00	
1.002897e+00	-3.026774e-03	1.289516e-01	1.576433e+00	1.732879e+00	2.779098e+04	1.110788e+04	3.000784e+02	-3.943358e-02	5.231357e-02	1.846287e-05	0.000000e+00	0.000000e+00	0.000000e+00	0.000000e+00	
1.003315e+00	-2.571910e-03	1.289252e-01	1.343560e+00	1.658528e+00	2.778314e+04	1.110619e+04	3.000941e+02	-5.559129e-02	4.767274e-02	1.846361e-05	0.000000e+00	0.000000e+00	0.000000e+00	0.000000e+00	
1.003363e+00	-1.557056e-03	1.290212e-01	8.872893e-01	1.516462e+00	2.780012e+04	1.111526e+04	3.001158e+02	3.108832e-02	3.921115e-02	1.846464e-05	0.000000e+00	0.000000e+00	0.000000e+00	0.000000e+00	
1.003714e+00	-7.825767e-04	1.290549e-01	4.385708e-01	1.428138e+00	2.780530e+04	1.111866e+04	3.001293e+02	6.355481e-02	3.333206e-02	1.846528e-05	0.000000e+00	0.000000e+00	0.000000e+00	0.000000e+00	
1.003716e+00	-2.073668e-03	1.289589e-01	1.165339e+00	1.554201e+00	2.778839e+04	1.110950e+04	3.001054e+02	-2.391767e-02	4.337488e-02	1.846415e-05	0.000000e+00	0.000000e+00	0.000000e+00	0.000000e+00	
1.003190e+00	-1.360267e-04	1.288652e-01	-3.522183e-01	1.258554e+00	2.776226e+04	1.110225e+04	3.001276e+02	-9.320089e-02	2.920173e-02	1.846520e-05	0.000000e+00	0.000000e+00	0.000000e+00	0.000000e+00	
1.002808e+00	2.133947e-04	1.291526e-01	-1.058470e+00	9.390043e-01	2.782193e+04	1.112567e+04	3.000914e+02	1.305617e-01	3.154736e-02	1.846349e-05	0.000000e+00	0.000000e+00	0.000000e+00	0.000000e+00	
1.001748e+00	-8.181715e-04	1.294216e-01	-3.732948e-01	2.345890e+00	2.789042e+04	1.114745e+04	3.000539e+02	3.386184e-01	5.285457e-02	1.846171e-05	0.000000e+00	0.000000e+00	0.000000e+00	0.000000e+00	
1.001384e+00	-1.006788e-03	1.292398e-01	-1.832812e-01	3.701799e+00	2.785930e+04	1.112246e+04	2.998024e+02	9.988315e-02	8.261937e-02	1.844981e-05	0.000000e+00	0.000000e+00	0.000000e+00	0.000000e+00	
1.002355e+00	5.666846e-04	1.284957e-01	-4.222185e-01	9.736543e-01	2.767749e+04	1.106924e+04	3.000955e+02	-4.085869e-01	2.378232e-02	1.846368e-05	0.000000e+00	0.000000e+00	0.000000e+00	0.000000e+00	
1.002273e+00	7.856155e-05	1.287413e-01	-1.171180e+00	9.405301e-01	2.773566e+04	1.109076e+04	3.001052e+02	-2.030114e-01	3.359626e-02	1.846414e-05	0.000000e+00	0.000000e+00	0.000000e+00	0.000000e+00	
1.002182e+00	-3.140252e-04	1.286003e-01	-1.004692e+00	1.278902e+00	2.770878e+04	1.107940e+04	3.001267e+02	-3.115582e-01	3.641409e-02	1.846516e-05	0.000000e+00	0.000000e+00	0.000000e+00	0.000000e+00	
1.001748e+00	-4.538360e-04	1.293857e-01	-1.558018e+00	1.703021e+00	2.788217e+04	1.114463e+04	3.000612e+02	3.117021e-01	5.137240e-02	1.846206e-05	0.000000e+00	0.000000e+00	0.000000e+00	0.000000e+00	
1.001040e+00	-1.169826e-03	1.283842e-01	6.126770e-01	5.100467e+00	2.768718e+04	1.103376e+04	2.993935e+02	-7.475622e-01	1.153557e-01	1.843045e-05	0.000000e+00	0.000000e+00	0.000000e+00	0.000000e+00	
1.003568e+00	-3.216954e-03	1.289682e-01	1.616926e+00	1.638255e+00	2.779471e+04	1.110967e+04	3.000881e+02	-2.236372e-02	5.139413e-02	1.846333e-05	0.000000e+00	0.000000e+00	0.000000e+00	0.000000e+00	
1.001094e+00	-1.600407e-03	1.290789e-01	1.393447e+00	4.441304e+00	2.783250e+04	1.109943e+04	2.995545e+02	-1.201796e-01	1.039337e-01	1.843807e-05	0.000000e+00	0.000000e+00	0.000000e+00	0.000000e+00	
1.000726e+00	-1.407207e-03	1.279201e-01	2.275239e+00	6.395629e+00	2.760822e+04	1.097124e+04	2.987772e+02	-1.344896e+00	1.531435e-01	1.840125e-05	0.000000e+00	0.000000e+00	0.000000e+00	0.000000e+00	
1.001584e+00	-2.253486e-03	1.290984e-01	1.211701e+00	2.598300e+00	2.782402e+04	1.111688e+04	2.999798e+02	4.650953e-02	6.395929e-02	1.845821e-05	0.000000e+00	0.000000e+00	0.000000e+00	0.000000e+00	
1.001141e+00	-2.073805e-03	1.281813e-01	1.627862e+00	3.329620e+00	2.763219e+04	1.103144e+04	2.998044e+02	-7.697239e-01	8.329950e-02	1.844991e-05	0.000000e+00	0.000000e+00	0.000000e+00	0.000000e+00	
1.001718e+00	-2.771786e-03	1.289146e-01	1.622252e+00	2.208545e+00	2.778481e+04	1.110227e+04	3.000131e+02	-9.298805e-02	6.121823e-02	1.845978e-05	0.000000e+00	0.000000e+00	0.000000e+00	0.000000e+00	
1.001920e+00	-3.274274e-03	1.289374e-01	1.843768e+00	1.940737e+00	2.779044e+04	1.110506e+04	3.000353e+02	-6.637568e-02	5.978919e-02	1.846083e-05	0.000000e+00	0.000000e+00	0.000000e+00	0.000000e+00	
1.002508e+00	-3.456436e-03	1.289678e-01	1.839681e+00	1.754241e+00	2.779658e+04	1.110861e+04	3.000604e+02	-3.244971e-02	5.675990e-02	1.846202e-05	0.000000e+00	0.000000e+00	0.000000e+00	0.000000e+00	
1.003375e+00	-3.638271e-03	1.289585e-01	1.880423e+00	1.623208e+00	2.779491e+04	1.110839e+04	3.000762e+02	-3.451226e-02	5.546970e-02	1.846277e-05	0.000000e+00	0.000000e+00	0.000000e+00	0.000000e+00	
1.004032e+00	-2.687881e-03	1.289443e-01	1.439449e+00	1.569997e+00	2.778772e+04	1.110805e+04	3.001001e+02	-3.779337e-02	4.756591e-02	1.846390e-05	0.000000e+00	0.000000e+00	0.000000e+00	0.000000e+00	
1.003848e+00	-4.142250e-05	1.290395e-01	-2.936405e-01	1.308154e+00	2.779913e+04	1.111687e+04	3.001166e+02	4.643635e-02	2.991691e-02	1.846468e-05	0.000000e+00	0.000000e+00	0.000000e+00	0.000000e+00	
1.004046e+00	-1.464116e-03	1.288873e-01	9.346384e-01	1.472166e+00	2.777101e+04	1.110368e+04	3.001147e+02	-7.951493e-02	3.895765e-02	1.846459e-05	0.000000e+00	0.000000e+00	0.000000e+00	0.000000e+00	
1.004435e+00	-6.750050e-04	1.289492e-01	4.605527e-01	1.416951e+00	2.778209e+04	1.110939e+04	3.001249e+02	-2.499545e-02	3.326935e-02	1.846507e-05	0.000000e+00	0.000000e+00	0.000000e+00	0.000000e+00	
1.004469e+00	-2.073981e-03	1.289964e-01	1.225826e+00	1.507750e+00	2.779665e+04	1.111280e+04	3.001071e+02	7.619188e-03	4.337596e-02	1.846423e-05	0.000000e+00	0.000000e+00	0.000000e+00	0.000000e+00	
1.003385e+00	4.329922e-04	1.289324e-01	-8.673891e-01	1.090157e+00	2.777293e+04	1.110616e+04	3.000767e+02	-5.583289e-02	3.111459e-02	1.846279e-05	0.000000e+00	0.000000e+00	0.000000e+00	0.000000e+00	
1.002901e+00	7.795454e-04	1.290978e-01	-5.200125e-01	1.021726e+00	2.780456e+04	1.111979e+04	3.000599e+02	7.432909e-02	2.557300e-02	1.846200e-05	0.000000e+00	0.000000e+00	0.000000e+00	0.000000e+00	
1.004066e+00	6.442798e-04	1.289698e-01	-9.006186e-01	1.124196e+00	2.778038e+04	1.110893e+04	3.000645e+02	-2.936441e-02	3.216307e-02	1.846222e-05	0.000000e+00	0.000000e+00	0.000000e+00	0.000000e+00	
1.002426e+00	1.074648e-03	1.293493e-01	1.578850e+00	2.428374e+00	2.786682e+04	1.113376e+04	2.998527e+02	2.077859e-01	6.450719e-02	1.845219e-05	0.000000e+00	0.000000e+00	0.000000e+00	0.000000e+00	
1.001388e+00	-6.554094e-04	1.279238e-01	-1.363287e+00	2.533706e+00	2.757101e+04	1.101546e+04	2.999726e+02	-9.224241e-01	6.477798e-02	1.845787e-05	0.000000e+00	0.000000e+00	0.000000e+00	0.000000e+00	
1.001053e+00	-8.529416e-04	1.286464e-01	-1.961091e+00	4.623517e+00	2.774337e+04	1.105813e+04	2.994432e+02	-5.147141e-01	1.125363e-01	1.843280e-05	0.000000e+00	0.000000e+00	0.000000e+00	0.000000e+00	
1.001939e+00	8.128778e-04	1.296835e-01	2.204534e+00	3.396231e+00	2.795166e+04	1.115538e+04	2.996609e+02	4.144082e-01	8.997018e-02	1.844311e-05	0.000000e+00	0.000000e+00	0.000000e+00	0.000000e+00	
1.001891e+00	3.568166e-04	1.291121e-01	-2.442037e-01	1.496326e+00	2.781408e+04	1.112207e+04	3.000884e+02	9.616393e-02	3.381380e-02	1.846335e-05	0.000000e+00	0.000000e+00	0.000000e+00	0.000000e+00	
1.001817e+00	-5.469850e-05	1.296434e-01	-1.769986e+00	1.137860e+00	2.793422e+04	1.116686e+04	3.000619e+02	5.240504e-01	4.673887e-02	1.846209e-05	0.000000e+00	0.000000e+00	0.000000e+00	0.000000e+00	
1.001454e+00	-2.659174e-04	1.280576e-01	-1.956909e+00	1.704584e+00	2.759662e+04	1.102813e+04	3.000039e+02	-8.013769e-01	5.836526e-02	1.845935e-05	0.000000e+00	0.000000e+00	0.000000e+00	0.000000e+00	
1.000704e+00	-1.000217e-03	1.296184e-01	-1.620712e+00	7.312096e+00	2.798199e+04	1.110625e+04	2.984907e+02	-5.505050e-02	1.668303e-01	1.838766e-05	0.000000e+00	0.000000e+00	0.000000e+00	0.000000e+00	
1.000349e+00	-1.278088e-03	1.284087e-01	2.326474e+00	9.763514e+00	2.777004e+04	1.095111e+04	2.970941e+02	-1.537226e+00	2.262079e-01	1.832134e-05	0.000000e+00	0.000000e+00	0.000000e+00	0.000000e+00	
3.124498e-03	-5.549155e-02	1.244040e-01	3.605980e+00	-1.171428e+01	2.701396e+04	1.056407e+04	2.958198e+02	-5.235117e+00	2.857445e-01	1.826069e-05	0.000000e+00	0.000000e+00	0.000000e+00	0.000000e+00	
2.537646e-03	-5.342172e-02	1.243618e-01	3.190137e+00	-1.186608e+01	2.700622e+04	1.055968e+04	2.957971e+02	-5.277042e+00	2.865682e-01	1.825961e-05	0.000000e+00	0.000000e+00	0.000000e+00	0.000000e+00	
2.003081e-03	-5.134308e-02	1.246190e-01	2.746558e+00	-1.187257e+01	2.705937e+04	1.058542e+04	2.959062e+02	-5.031131e+00	2.835667e-01	1.826481e-05	0.000000e+00	0.000000e+00	0.000000e+00	0.000000e+00	
1.004417e+00	-3.686241e-03	1.289591e-01	1.827867e+00	1.547175e+00	2.779459e+04	1.110894e+04	3.000898e+02	-2.928186e-02	5.347301e-02	1.846341e-05	0.000000e+00	0.000000e+00	0.000000e+00	0.000000e+00	
1.000730e+00	-1.898050e-03	1.294015e-01	2.280085e+00	4.705492e+00	2.790885e+04	1.112128e+04	2.993959e+02	8.863297e-02	1.164908e-01	1.843056e-05	0.000000e+00	0.000000e+00	0.000000e+00	0.000000e+00	
1.000388e+00	-1.645454e-03	1.273400e-01	4.792880e+00	5.906722e+00	2.749702e+04	1.090793e+04	2.984063e+02	-1.949789e+00	1.724947e-01	1.838365e-05	0.000000e+00	0.000000e+00	0.000000e+00	0.000000e+00	
1.001192e+00	-2.541989e-03	1.288589e-01	1.837578e+00	2.794539e+00	2.777689e+04	1.109339e+04	2.999027e+02	-1.778418e-01	7.476301e-02	1.845456e-05	0.000000e+00	0.000000e+00	0.000000e+00	0.000000e+00	
1.000750e+00	-2.357603e-03	1.292284e-01	2.038999e+00	3.371200e+00	2.786071e+04	1.112026e+04	2.997696e+02	7.887143e-02	8.783759e-02	1.844826e-05	0.000000e+00	0.000000e+00	0.000000e+00	0.000000e+00	
1.001336e+00	-3.188975e-03	1.288963e-01	2.021057e+00	2.254848e+00	2.778402e+04	1.109938e+04	2.999776e+02	-1.206272e-01	6.765932e-02	1.845810e-05	0.000000e+00	0.000000e+00	0.000000e+00	0.000000e+00	
1.001603e+00	-3.725641e-03	1.288555e-01	2.094382e+00	1.961368e+00	2.777499e+04	1.109722e+04	3.000140e+02	-1.413018e-01	6.413085e-02	1.845983e-05	0.000000e+00	0.000000e+00	0.000000e+00	0.000000e+00	
1.000046e+00	-1.489872e-03	1.294884e-01	6.315562e+00	5.579870e+00	2.797133e+04	1.107884e+04	2.980531e+02	-3.168983e-01	1.880475e-01	1.836689e-05	0.000000e+00	0.000000e+00	0.000000e+00	0.000000e+00	
9.997621e-01	-1.104660e-03	1.310548e-01	7.117134e+00	2.233112e+00	2.828916e+04	1.123075e+04	2.985288e+02	1.134524e+00	1.643237e-01	1.838947e-05	0.000000e+00	0.000000e+00	0.000000e+00	0.000000e+00	
1.002227e+00	-3.821779e-03	1.289296e-01	2.082766e+00	1.795059e+00	2.779048e+04	1.110447e+04	3.000374e+02	-7.205942e-02	6.141524e-02	1.846093e-05	0.000000e+00	0.000000e+00	0.000000e+00	0.000000e+00	
1.002883e+00	-4.151654e-03	1.289287e-01	2.131457e+00	1.647018e+00	2.779065e+04	1.110500e+04	3.000539e+02	-6.691386e-02	6.016497e-02	1.846171e-05	0.000000e+00	0.000000e+00	0.000000e+00	0.000000e+00	
1.003908e+00	-4.434761e-03	1.289598e-01	2.211203e+00	1.540209e+00	2.779857e+04	1.110816e+04	3.000671e+02	-3.671401e-02	6.017357e-02	1.846234e-05	0.000000e+00	0.000000e+00	0.000000e+00	0.000000e+00	
1.004971e+00	-2.910487e-03	1.289718e-01	1.529382e+00	1.499341e+00	2.779408e+04	1.111052e+04	3.001028e+02	-1.422612e-02	4.781755e-02	1.846403e-05	0.000000e+00	0.000000e+00	0.000000e+00	0.000000e+00	
1.004616e+00	1.051319e-04	1.289294e-01	-2.795911e-01	1.295870e+00	2.777496e+04	1.110726e+04	3.001133e+02	-4.538212e-02	2.960725e-02	1.846452e-05	0.000000e+00	0.000000e+00	0.000000e+00	0.000000e+00	
1.004844e+00	-1.369119e-03	1.290214e-01	9.296470e-01	1.463968e+00	2.779976e+04	1.111524e+04	3.001149e+02	3.091523e-02	3.870300e-02	1.846460e-05	0.000000e+00	0.000000e+00	0.000000e+00	0.000000e+00	
1.005256e+00	-5.426814e-04	1.289631e-01	4.131629e-01	1.399229e+00	2.778476e+04	1.111060e+04	3.001252e+02	-1.341224e-02	3.257435e-02	1.846509e-05	0.000000e+00	0.000000e+00	0.000000e+00	0.000000e+00	
1.005376e+00	-2.091691e-03	1.289482e-01	1.260203e+00	1.453681e+00	2.778609e+04	1.110869e+04	3.001084e+02	-3.165865e-02	4.296098e-02	1.846429e-05	0.000000e+00	0.000000e+00	0.000000e+00	0.000000e+00	
1.005573e+00	-3.722451e-03	1.289580e-01	1.839654e+00	1.466421e+00	2.779433e+04	1.110915e+04	3.000978e+02	-2.731673e-02	5.253142e-02	1.846379e-05	0.000000e+00	0.000000e+00	0.000000e+00	0.000000e+00	
1.004882e+00	9.385367e-04	1.288906e-01	-7.708792e-01	1.069199e+00	2.776293e+04	1.110247e+04	3.000743e+02	-9.107609e-02	2.944899e-02	1.846268e-05	0.000000e+00	0.000000e+00	0.000000e+00	0.000000e+00	
1.003501e+00	1.075457e-03	1.286829e-01	-4.545292e-01	1.228268e+00	2.771424e+04	1.108303e+04	3.000322e+02	-2.768550e-01	2.930950e-02	1.846069e-05	0.000000e+00	0.000000e+00	0.000000e+00	0.000000e+00	
1.002950e+00	1.416608e-03	1.290955e-01	1.049095e+00	1.934271e+00	2.780467e+04	1.111437e+04	2.999191e+02	2.255153e-02	4.909651e-02	1.845533e-05	0.000000e+00	0.000000e+00	0.000000e+00	0.000000e+00	
1.004265e+00	1.554058e-03	1.291412e-01	-3.202508e-01	1.239913e+00	2.781290e+04	1.112262e+04	3.000355e+02	1.014099e-01	2.855714e-02	1.846084e-05	0.000000e+00	0.000000e+00	0.000000e+00	0.000000e+00	
1.002666e+00	1.727528e-03	1.290418e-01	4.229239e+00	4.231793e+00	2.783321e+04	1.107781e+04	2.990569e+02	-3.267550e-01	1.337372e-01	1.841450e-05	0.000000e+00	0.000000e+00	0.000000e+00	0.000000e+00	
1.001992e+00	1.345986e-03	1.299228e-01	5.068158e+00	5.875436e+00	2.805479e+04	1.112923e+04	2.984079e+02	1.645940e-01	1.724583e-01	1.838373e-05	0.000000e+00	0.000000e+00	0.000000e+00	0.000000e+00	
1.001122e+00	-4.535728e-04	1.319533e-01	-4.094167e+00	2.748771e+00	2.845483e+04	1.134507e+04	2.995141e+02	2.226753e+00	1.077173e-01	1.843616e-05	0.000000e+00	0.000000e+00	0.000000e+00	0.000000e+00	
1.000804e+00	-6.166995e-04	1.254138e-01	-4.046494e+00	5.144322e+00	2.706550e+04	1.075789e+04	2.988215e+02	-3.383338e+00	1.505966e-01	1.840335e-05	0.000000e+00	0.000000e+00	0.000000e+00	0.000000e+00	
1.001558e+00	1.055684e-03	1.295134e-01	6.034396e+00	7.559251e+00	2.800768e+04	1.105860e+04	2.974513e+02	-5.102762e-01	2.160056e-01	1.833831e-05	0.000000e+00	0.000000e+00	0.000000e+00	0.000000e+00	
1.001505e+00	6.022421e-04	1.291120e-01	3.949847e+00	5.026959e+00	2.785851e+04	1.108009e+04	2.989560e+02	-3.049083e-01	1.428538e-01	1.840972e-05	0.000000e+00	0.000000e+00	0.000000e+00	0.000000e+00	
1.001483e+00	1.487734e-04	1.279185e-01	2.420077e-01	1.916583e+00	2.756000e+04	1.101817e+04	3.000588e+02	-8.965747e-01	4.348879e-02	1.846195e-05	0.000000e+00	0.000000e+00	0.000000e+00	0.000000e+00	
1.001148e+00	-4.570680e-05	1.287058e-01	-4.348304e-01	2.591493e+00	2.773275e+04	1.108237e+04	2.999610e+02	-2.831639e-01	5.880304e-02	1.845732e-05	0.000000e+00	0.000000e+00	0.000000e+00	0.000000e+00	
1.000463e+00	-6.911333e-04	1.334886e-01	-9.962183e+00	5.957709e+00	2.889657e+04	1.135676e+04	2.963743e+02	2.338369e+00	2.519615e-01	1.828710e-05	0.000000e+00	0.000000e+00	0.000000e+00	0.000000e+00	
1.000000e+00	-1.000000e-03	1.135102e-01	-1.574719e+00	6.064303e+00	2.449657e+04	9.729460e+03	2.985960e+02	-1.320911e+01	1.593399e-01	1.839265e-05	0.000000e+00	0.000000e+00	0.000000e+00	0.000000e+00	
4.487486e-03	-5.971618e-02	1.244659e-01	4.049675e+00	-1.163602e+01	2.702869e+04	1.056756e+04	2.957704e+02	-5.201761e+00	2.871143e-01	1.825834e-05	0.000000e+00	0.000000e+00	0.000000e+00	0.000000e+00	
6.075662e-03	-6.395961e-02	1.242620e-01	4.625657e+00	-1.155402e+01	2.698810e+04	1.054594e+04	2.956495e+02	-5.408319e+00	2.905620e-01	1.825258e-05	0.000000e+00	0.000000e+00	0.000000e+00	0.000000e+00	
1.454911e-04	-5.497783e-02	1.248007e-01	3.317241e+00	-1.153803e+01	2.709509e+04	1.060706e+04	2.960796e+02	-4.824379e+00	2.788737e-01	1.827306e-05	0.000000e+00	0.000000e+00	0.000000e+00	0.000000e+00	
7.732601e-05	-5.865565e-02	1.248523e-01	3.764581e+00	-1.135496e+01	2.710515e+04	1.061282e+04	2.961178e+02	-4.769360e+00	2.777494e-01	1.827489e-05	0.000000e+00	0.000000e+00	0.000000e+00	0.000000e+00	
-3.114826e-04	-5.264658e-02	1.248420e-01	2.935622e+00	-1.158309e+01	2.710269e+04	1.061233e+04	2.961287e+02	-4.774010e+00	2.774553e-01	1.827541e-05	0.000000e+00	0.000000e+00	0.000000e+00	0.000000e+00	
-2.382674e-03	-5.411149e-02	1.251010e-01	3.079792e+00	-1.135662e+01	2.715491e+04	1.064061e+04	2.963031e+02	-4.503829e+00	2.725720e-01	1.828371e-05	0.000000e+00	0.000000e+00	0.000000e+00	0.000000e+00	
1.078855e-03	-4.705078e-02	1.246407e-01	2.192526e+00	-1.182688e+01	2.706062e+04	1.059209e+04	2.960411e+02	-4.967379e+00	2.797839e-01	1.827123e-05	0.000000e+00	0.000000e+00	0.000000e+00	0.000000e+00	
-1.887345e-03	-4.920194e-02	1.250548e-01	2.443432e+00	-1.147123e+01	2.714351e+04	1.063740e+04	2.963232e+02	-4.534444e+00	2.717773e-01	1.828466e-05	0.000000e+00	0.000000e+00	0.000000e+00	0.000000e+00	
1.005022e+00	-4.604954e-03	1.289808e-01	2.183396e+00	1.455829e+00	2.780301e+04	1.111053e+04	3.000819e+02	-1.414949e-02	5.858822e-02	1.846304e-05	0.000000e+00	0.000000e+00	0.000000e+00	0.000000e+00	
1.001532e+00	-4.190127e-03	1.289321e-01	2.348275e+00	1.867701e+00	2.779374e+04	1.110353e+04	3.000063e+02	-8.097922e-02	6.702106e-02	1.845946e-05	0.000000e+00	0.000000e+00	0.000000e+00	0.000000e+00	
1.000302e+00	-2.224560e-03	1.280572e-01	3.236192e+00	3.856382e+00	2.761886e+04	1.100796e+04	2.994562e+02	-9.940864e-01	1.133244e-01	1.843342e-05	0.000000e+00	0.000000e+00	0.000000e+00	0.000000e+00	
1.000761e+00	-3.043208e-03	1.289835e-01	2.387988e+00	2.763764e+00	2.780787e+04	1.110246e+04	2.998579e+02	-9.121385e-02	8.157396e-02	1.845244e-05	0.000000e+00	0.000000e+00	0.000000e+00	0.000000e+00	
1.001005e+00	-3.668849e-03	1.288688e-01	2.296386e+00	2.127678e+00	2.778058e+04	1.109702e+04	2.999777e+02	-1.431710e-01	6.996499e-02	1.845811e-05	0.000000e+00	0.000000e+00	0.000000e+00	0.000000e+00	
9.996116e-01	-1.963759e-03	1.272150e-01	4.282711e+00	2.641123e+00	2.743685e+04	1.093494e+04	2.994390e+02	-1.691748e+00	1.140161e-01	1.843261e-05	0.000000e+00	0.000000e+00	0.000000e+00	0.000000e+00	
9.990485e-01	-1.418593e-03	1.277641e-01	4.521403e+00	2.214404e+00	2.755449e+04	1.098212e+04	2.994385e+02	-1.240990e+00	1.135923e-01	1.843258e-05	0.000000e+00	0.000000e+00	0.000000e+00	0.000000e+00	
1.002252e+00	-4.525788e-03	1.289923e-01	2.337890e+00	1.671112e+00	2.780639e+04	1.110975e+04	3.000343e+02	-2.155524e-02	6.415765e-02	1.846078e-05	0.000000e+00	0.000000e+00	0.000000e+00	0.000000e+00	
1.002927e+00	-4.933331e-03	1.289700e-01	2.371231e+00	1.583088e+00	2.780223e+04	1.110829e+04	3.000467e+02	-3.554543e-02	6.366257e-02	1.846137e-05	0.000000e+00	0.000000e+00	0.000000e+00	0.000000e+00	
1.001716e+00	-5.104509e-03	1.288470e-01	2.556187e+00	1.699946e+00	2.777738e+04	1.109632e+04	3.000097e+02	-1.498310e-01	6.861590e-02	1.845962e-05	0.000000e+00	0.000000e+00	0.000000e+00	0.000000e+00	
1.004688e+00	-5.679436e-03	1.289856e-01	2.493790e+00	1.420641e+00	2.780738e+04	1.111018e+04	3.000615e+02	-1.744243e-02	6.407591e-02	1.846207e-05	0.000000e+00	0.000000e+00	0.000000e+00	0.000000e+00	
1.003654e+00	-5.462621e-03	1.289819e-01	2.519315e+00	1.497403e+00	2.780686e+04	1.110943e+04	3.000496e+02	-2.465585e-02	6.543365e-02	1.846151e-05	0.000000e+00	0.000000e+00	0.000000e+00	0.000000e+00	
1.006036e+00	-2.795403e-03	1.289738e-01	1.518783e+00	1.433155e+00	2.779403e+04	1.111085e+04	3.001069e+02	-1.105327e-02	4.662153e-02	1.846422e-05	0.000000e+00	0.000000e+00	0.000000e+00	0.000000e+00	
1.005489e+00	2.842966e-04	1.290374e-01	-2.310138e-01	1.273596e+00	2.779809e+04	1.111664e+04	3.001154e+02	4.425319e-02	2.888368e-02	1.846462e-05	0.000000e+00	0.000000e+00	0.000000e+00	0.000000e+00	
1.005747e+00	-1.252934e-03	1.289636e-01	8.890938e-01	1.420003e+00	2.778683e+04	1.111038e+04	3.001180e+02	-1.556816e-02	3.740686e-02	1.846475e-05	0.000000e+00	0.000000e+00	0.000000e+00	0.000000e+00	
1.006183e+00	-3.835807e-04	1.289875e-01	4.091415e-01	1.364211e+00	2.778976e+04	1.111276e+04	3.001265e+02	7.171454e-03	3.179329e-02	1.846515e-05	0.000000e+00	0.000000e+00	0.000000e+00	0.000000e+00	
1.006337e+00	-1.844911e-03	1.290000e-01	1.195803e+00	1.402566e+00	2.779646e+04	1.111332e+04	3.001126e+02	1.250427e-02	4.114109e-02	1.846449e-05	0.000000e+00	0.000000e+00	0.000000e+00	0.000000e+00	
1.006730e+00	-3.668969e-03	1.289744e-01	1.788480e+00	1.390286e+00	2.779685e+04	1.111078e+04	3.001038e+02	-1.168865e-02	5.057506e-02	1.846408e-05	0.000000e+00	0.000000e+00	0.000000e+00	0.000000e+00	
1.006235e+00	-4.733211e-03	1.289961e-01	2.141273e+00	1.384310e+00	2.780575e+04	1.111222e+04	3.000922e+02	2.035094e-03	5.691800e-02	1.846353e-05	0.000000e+00	0.000000e+00	0.000000e+00	0.000000e+00	
1.005837e+00	1.026907e-03	1.289738e-01	-6.402534e-01	1.069794e+00	2.778096e+04	1.110998e+04	3.000834e+02	-1.941295e-02	2.783607e-02	1.846311e-05	0.000000e+00	0.000000e+00	0.000000e+00	0.000000e+00	
1.005250e+00	1.791990e-03	1.288873e-01	-2.408315e-01	1.059069e+00	2.775809e+04	1.110140e+04	3.000532e+02	-1.012967e-01	2.426690e-02	1.846168e-05	0.000000e+00	0.000000e+00	0.000000e+00	0.000000e+00	
1.003542e+00	2.072849e-03	1.287150e-01	2.592635e+00	2.637820e+00	2.773581e+04	1.107307e+04	2.996879e+02	-3.720203e-01	8.279957e-02	1.844439e-05	0.000000e+00	0.000000e+00	0.000000e+00	0.000000e+00	
1.004535e+00	2.470081e-03	1.289822e-01	2.173785e+00	2.115561e+00	2.778814e+04	1.110099e+04	2.998211e+02	-1.052743e-01	6.774954e-02	1.845070e-05	0.000000e+00	0.000000e+00	0.000000e+00	0.000000e+00	
1.002108e+00	2.027680e-03	1.305861e-01	7.310598e+00	7.817964e+00	2.826745e+04	1.113152e+04	2.969529e+02	1.864078e-01	2.372668e-01	1.831463e-05	0.000000e+00	0.000000e+00	0.000000e+00	0.000000e+00	
1.002875e+00	2.567564e-03	1.308830e-01	6.918851e+00	6.604525e+00	2.830492e+04	1.118216e+04	2.976274e+02	6.702715e-01	2.113094e-01	1.834668e-05	0.000000e+00	0.000000e+00	0.000000e+00	0.000000e+00	
1.001666e+00	1.577034e-03	1.318988e-01	7.387526e+00	9.130476e+00	2.857790e+04	1.122200e+04	2.963875e+02	1.050886e+00	2.580046e-01	1.828772e-05	0.000000e+00	0.000000e+00	0.000000e+00	0.000000e+00	
1.001198e+00	1.345900e-03	1.313068e-01	7.726322e+00	1.030150e+01	2.848386e+04	1.114098e+04	2.955742e+02	2.768123e-01	2.845412e-01	1.824899e-05	0.000000e+00	0.000000e+00	0.000000e+00	0.000000e+00	
1.000846e+00	-1.973412e-04	1.249478e-01	-1.751191e-01	2.715260e+00	2.692228e+04	1.075706e+04	2.999131e+02	-3.391230e+00	6.272458e-02	1.845505e-05	0.000000e+00	0.000000e+00	0.000000e+00	0.000000e+00	
1.000592e+00	-3.584745e-04	1.263146e-01	-2.653565e+00	4.102301e+00	2.722730e+04	1.085313e+04	2.993172e+02	-2.473401e+00	1.115220e-01	1.842684e-05	0.000000e+00	0.000000e+00	0.000000e+00	0.000000e+00	
1.001121e+00	8.650509e-04	1.326774e-01	6.756982e+00	1.001042e+01	2.874876e+04	1.127962e+04	2.961611e+02	1.601447e+00	2.638555e-01	1.827695e-05	0.000000e+00	0.000000e+00	0.000000e+00	0.000000e+00	
1.001136e+00	3.336436e-04	1.326839e-01	4.542035e+00	7.246393e+00	2.866215e+04	1.135461e+04	2.981154e+02	2.317878e+00	1.862169e-01	1.836985e-05	0.000000e+00	0.000000e+00	0.000000e+00	0.000000e+00	
1.000840e+00	1.524423e-04	1.303539e-01	7.694044e+00	8.950260e+00	2.823177e+04	1.107898e+04	2.960779e+02	-3.155889e-01	2.624873e-01	1.827298e-05	0.000000e+00	0.000000e+00	0.000000e+00	0.000000e+00	
1.000364e+00	-3.367954e-04	1.243189e-01	4.678923e+00	1.637021e+01	2.709659e+04	1.037229e+04	2.906484e+02	-7.067357e+00	4.007154e-01	1.801327e-05	0.000000e+00	0.000000e+00	0.000000e+00	0.000000e+00	
1.000000e+00	0.000000e+00	2.422729e-01	1.938563e+01	1.030575e+02	5.863499e+04	1.437610e+04	2.067123e+02	3.118569e+01	1.501735e+00	1.366388e-05	0.000000e+00	0.000000e+00	0.000000e+00	0.000000e+00	
1.059948e-03	-6.337615e-02	1.248217e-01	4.300635e+00	-1.123290e+01	2.710016e+04	1.060826e+04	2.960630e+02	-4.812927e+00	2.793594e-01	1.827228e-05	0.000000e+00	0.000000e+00	0.000000e+00	0.000000e+00	
7.917903e-03	-6.828504e-02	1.241971e-01	5.170100e+00	-1.142827e+01	2.697651e+04	1.053724e+04	2.955600e+02	-5.491440e+00	2.930421e-01	1.824831e-05	0.000000e+00	0.000000e+00	0.000000e+00	0.000000e+00	
1.006240e-02	-7.276315e-02	1.241048e-01	5.713623e+00	-1.128115e+01	2.695920e+04	1.052598e+04	2.954637e+02	-5.599012e+00	2.956976e-01	1.824372e-05	0.000000e+00	0.000000e+00	0.000000e+00	0.000000e+00	
1.251909e-02	-7.736428e-02	1.240155e-01	6.252304e+00	-1.110937e+01	2.694257e+04	1.051495e+04	2.953667e+02	-5.704413e+00	2.983552e-01	1.823910e-05	0.000000e+00	0.000000e+00	0.000000e+00	0.000000e+00	
1.529738e-02	-8.205915e-02	1.239257e-01	6.790204e+00	-1.089909e+01	2.692562e+04	1.050412e+04	2.952764e+02	-5.807819e+00	3.008027e-01	1.823479e-05	0.000000e+00	0.000000e+00	0.000000e+00	0.000000e+00	
1.843145e-02	-8.684735e-02	1.238500e-01	7.318900e+00	-1.063689e+01	2.691103e+04	1.049520e+04	2.952060e+02	-5.893095e+00	3.026726e-01	1.823143e-05	0.000000e+00	0.000000e+00	0.000000e+00	0.000000e+00	
2.196161e-02	-9.173673e-02	1.238033e-01	7.815960e+00	-1.032914e+01	2.690181e+04	1.048968e+04	2.951621e+02	-5.945804e+00	3.037801e-01	1.822934e-05	0.000000e+00	0.000000e+00	0.000000e+00	0.000000e+00	
2.590787e-02	-9.671979e-02	1.237846e-01	8.278531e+00	-1.000162e+01	2.689830e+04	1.048696e+04	2.951301e+02	-5.971774e+00	3.045534e-01	1.822782e-05	0.000000e+00	0.000000e+00	0.000000e+00	0.000000e+00	
3.032086e-02	-1.018288e-01	1.237660e-01	8.718649e+00	-9.659580e+00	2.689479e+04	1.048430e+04	2.950994e+02	-5.997254e+00	3.052971e-01	1.822635e-05	0.000000e+00	0.000000e+00	0.000000e+00	0.000000e+00	
3.519676e-02	-1.070040e-01	1.237431e-01	9.144488e+00	-9.287099e+00	2.689011e+04	1.048149e+04	2.950750e+02	-6.024091e+00	3.058615e-01	1.822519e-05	0.000000e+00	0.000000e+00	0.000000e+00	0.000000e+00	
4.055945e-02	-1.122194e-01	1.237374e-01	9.544735e+00	-8.881255e+00	2.688865e+04	1.048072e+04	2.950668e+02	-6.031439e+00	3.059758e-01	1.822480e-05	0.000000e+00	0.000000e+00	0.000000e+00	0.000000e+00	
4.640551e-02	-1.174268e-01	1.237511e-01	9.911082e+00	-8.448474e+00	2.689078e+04	1.048220e+04	2.950761e+02	-6.017269e+00	3.056020e-01	1.822524e-05	0.000000e+00	0.000000e+00	0.000000e+00	0.000000e+00	
5.272092e-02	-1.225794e-01	1.237829e-01	1.023651e+01	-7.993183e+00	2.689619e+04	1.048594e+04	2.951053e+02	-5.981552e+00	3.046702e-01	1.822663e-05	0.000000e+00	0.000000e+00	0.000000e+00	0.000000e+00	