TITLE = "Visualization of the volumetric solution"
VARIABLES = "x""y""Conservative_1""Conservative_2""Conservative_3""Conservative_4""Pressure""Temperature""C<sub>p</sub>""Mach""<greek>m</greek>""C<sub>f</sub>_x""C<sub>f</sub>_y""h""y<sup>+</sup>"
ZONE NODES= 5233, ELEMENTS= 10216, DATAPACKING=POINT, ZONETYPE=FEQUADRILATERAL
1.002197e+00	-1.323107e-03	1.291000e-01	7.880892e-01	2.045955e+00	2.782228e+04	1.112146e+04	3.001001e+02	9.035252e-02	4.890235e-02	1.846390e-05	0.000000e+00	0.000000e+00	0.000000e+00	0.000000e+00	
1.002618e+00	-9.420134e-04	1.290559e-01	6.053815e-01	1.679208e+00	2.781179e+04	1.111978e+04	3.001570e+02	7.423631e-02	3.982329e-02	1.846659e-05	0.000000e+00	0.000000e+00	0.000000e+00	0.000000e+00	
1.002283e+00	-1.635626e-03	1.289442e-01	9.577274e-01	2.010760e+00	2.778887e+04	1.110785e+04	3.000949e+02	-3.967361e-02	4.973683e-02	1.846365e-05	0.000000e+00	0.000000e+00	0.000000e+00	0.000000e+00	
1.001798e+00	-1.558910e-03	1.289099e-01	9.133151e-01	2.600895e+00	2.778375e+04	1.110171e+04	3.000087e+02	-9.836994e-02	6.158434e-02	1.845958e-05	0.000000e+00	0.000000e+00	0.000000e+00	0.000000e+00	
1.002455e+00	-2.030408e-03	1.289507e-01	1.158152e+00	1.932464e+00	2.779103e+04	1.110854e+04	3.000983e+02	-3.312179e-02	5.030892e-02	1.846382e-05	0.000000e+00	0.000000e+00	0.000000e+00	0.000000e+00	
1.002660e+00	-2.529248e-03	1.289595e-01	1.459168e+00	1.862609e+00	2.779445e+04	1.110910e+04	3.000929e+02	-2.780172e-02	5.283298e-02	1.846356e-05	0.000000e+00	0.000000e+00	0.000000e+00	0.000000e+00	
1.002755e+00	-1.491374e-03	1.288972e-01	9.809931e-01	1.705964e+00	2.777813e+04	1.110524e+04	3.001337e+02	-6.462282e-02	4.395972e-02	1.846549e-05	0.000000e+00	0.000000e+00	0.000000e+00	0.000000e+00	
1.003181e+00	-1.084017e-03	1.289586e-01	8.402972e-01	1.537750e+00	2.779073e+04	1.111153e+04	3.001608e+02	-4.550051e-03	3.912441e-02	1.846677e-05	0.000000e+00	0.000000e+00	0.000000e+00	0.000000e+00	
1.003055e+00	-2.040928e-03	1.289613e-01	1.251311e+00	1.690495e+00	2.779320e+04	1.111042e+04	3.001245e+02	-1.517375e-02	4.695986e-02	1.846505e-05	0.000000e+00	0.000000e+00	0.000000e+00	0.000000e+00	
1.003138e+00	-6.857969e-04	1.289248e-01	4.803230e-01	1.502030e+00	2.778269e+04	1.110922e+04	3.001768e+02	-2.666278e-02	3.521655e-02	1.846753e-05	0.000000e+00	0.000000e+00	0.000000e+00	0.000000e+00	
1.002162e+00	-9.797755e-04	1.288516e-01	5.811326e-01	2.000892e+00	2.776886e+04	1.110080e+04	3.001200e+02	-1.070284e-01	4.656105e-02	1.846484e-05	0.000000e+00	0.000000e+00	0.000000e+00	0.000000e+00	
1.001764e+00	-1.179256e-03	1.287841e-01	6.869967e-01	2.664979e+00	2.775666e+04	1.109090e+04	3.000096e+02	-2.016447e-01	6.154409e-02	1.845962e-05	0.000000e+00	0.000000e+00	0.000000e+00	0.000000e+00	
1.002654e+00	-3.849683e-04	1.290648e-01	-2.717263e-01	1.414279e+00	2.781208e+04	1.112162e+04	3.001862e+02	9.184205e-02	3.212584e-02	1.846797e-05	0.000000e+00	0.000000e+00	0.000000e+00	0.000000e+00	
1.002153e+00	-6.397922e-04	1.290446e-01	-9.420147e-03	1.861662e+00	2.781034e+04	1.111876e+04	3.001561e+02	6.456225e-02	4.153787e-02	1.846655e-05	0.000000e+00	0.000000e+00	0.000000e+00	0.000000e+00	
1.001392e+00	-1.379730e-03	1.290306e-01	9.480911e-01	3.772711e+00	2.781701e+04	1.110335e+04	2.997723e+02	-8.271799e-02	8.685884e-02	1.844839e-05	0.000000e+00	0.000000e+00	0.000000e+00	0.000000e+00	
1.001928e+00	-1.979494e-03	1.288862e-01	1.140865e+00	2.381730e+00	2.777862e+04	1.110062e+04	3.000347e+02	-1.087561e-01	5.900743e-02	1.846080e-05	0.000000e+00	0.000000e+00	0.000000e+00	0.000000e+00	
1.001487e+00	-1.799233e-03	1.289734e-01	1.141485e+00	3.111771e+00	2.780103e+04	1.110338e+04	2.999060e+02	-8.245537e-02	7.402530e-02	1.845472e-05	0.000000e+00	0.000000e+00	0.000000e+00	0.000000e+00	
1.002094e+00	-2.417167e-03	1.288510e-01	1.451756e+00	2.167503e+00	2.777183e+04	1.109817e+04	3.000501e+02	-1.322088e-01	5.830444e-02	1.846153e-05	0.000000e+00	0.000000e+00	0.000000e+00	0.000000e+00	
1.002266e+00	-2.908394e-03	1.289059e-01	1.748139e+00	2.004108e+00	2.778492e+04	1.110299e+04	3.000527e+02	-8.611925e-02	5.941062e-02	1.846166e-05	0.000000e+00	0.000000e+00	0.000000e+00	0.000000e+00	
1.002881e+00	-3.052301e-03	1.289502e-01	1.785797e+00	1.794381e+00	2.779446e+04	1.110784e+04	3.000806e+02	-3.979287e-02	5.653286e-02	1.846297e-05	0.000000e+00	0.000000e+00	0.000000e+00	0.000000e+00	
1.003303e+00	-2.601885e-03	1.289225e-01	1.557752e+00	1.698103e+00	2.778682e+04	1.110649e+04	3.001086e+02	-5.272043e-02	5.146790e-02	1.846430e-05	0.000000e+00	0.000000e+00	0.000000e+00	0.000000e+00	
1.003362e+00	-1.587629e-03	1.290147e-01	1.089495e+00	1.533810e+00	2.780348e+04	1.111591e+04	3.001484e+02	3.725298e-02	4.198743e-02	1.846618e-05	0.000000e+00	0.000000e+00	0.000000e+00	0.000000e+00	
1.003720e+00	-8.165499e-04	1.290474e-01	6.486230e-01	1.440133e+00	2.780884e+04	1.111967e+04	3.001738e+02	7.320137e-02	3.523905e-02	1.846739e-05	0.000000e+00	0.000000e+00	0.000000e+00	0.000000e+00	
1.003710e+00	-2.107957e-03	1.289588e-01	1.379113e+00	1.575956e+00	2.779316e+04	1.111046e+04	3.001316e+02	-1.474497e-02	4.675828e-02	1.846539e-05	0.000000e+00	0.000000e+00	0.000000e+00	0.000000e+00	
1.003203e+00	-1.636737e-04	1.288531e-01	-1.454503e-01	1.293443e+00	2.776489e+04	1.110333e+04	3.001847e+02	-8.293869e-02	2.908293e-02	1.846790e-05	0.000000e+00	0.000000e+00	0.000000e+00	0.000000e+00	
1.002824e+00	1.904957e-04	1.291329e-01	-8.954568e-01	1.000424e+00	2.782313e+04	1.112646e+04	3.001584e+02	1.380885e-01	2.993641e-02	1.846666e-05	0.000000e+00	0.000000e+00	0.000000e+00	0.000000e+00	
1.001752e+00	-8.322193e-04	1.294413e-01	-1.290979e-01	2.511322e+00	2.789825e+04	1.114953e+04	3.000642e+02	3.585056e-01	5.594313e-02	1.846220e-05	0.000000e+00	0.000000e+00	0.000000e+00	0.000000e+00	
1.001385e+00	-1.017962e-03	1.292582e-01	6.836091e-02	3.928310e+00	2.786690e+04	1.112287e+04	2.997708e+02	1.038262e-01	8.757294e-02	1.844832e-05	0.000000e+00	0.000000e+00	0.000000e+00	0.000000e+00	
1.002374e+00	5.495170e-04	1.284848e-01	-3.885498e-01	1.005255e+00	2.768081e+04	1.107051e+04	3.001555e+02	-3.964246e-01	2.415113e-02	1.846652e-05	0.000000e+00	0.000000e+00	0.000000e+00	0.000000e+00	
1.002286e+00	6.118205e-05	1.287473e-01	-1.003122e+00	1.036274e+00	2.774236e+04	1.109371e+04	3.001713e+02	-1.747730e-01	3.225317e-02	1.846727e-05	0.000000e+00	0.000000e+00	0.000000e+00	0.000000e+00	
1.002191e+00	-3.312807e-04	1.286111e-01	-7.751874e-01	1.394635e+00	2.771600e+04	1.108244e+04	3.001838e+02	-2.824696e-01	3.571919e-02	1.846786e-05	0.000000e+00	0.000000e+00	0.000000e+00	0.000000e+00	
1.001755e+00	-4.671796e-04	1.293826e-01	-1.311190e+00	1.882699e+00	2.788551e+04	1.114607e+04	3.001071e+02	3.254192e-01	5.106060e-02	1.846423e-05	0.000000e+00	0.000000e+00	0.000000e+00	0.000000e+00	
1.001040e+00	-1.178449e-03	1.283792e-01	8.944948e-01	5.347716e+00	2.769086e+04	1.103055e+04	2.993179e+02	-7.782860e-01	1.217728e-01	1.842687e-05	0.000000e+00	0.000000e+00	0.000000e+00	0.000000e+00	
1.003550e+00	-3.249043e-03	1.289745e-01	1.839443e+00	1.680295e+00	2.780016e+04	1.111044e+04	3.000944e+02	-1.496911e-02	5.562336e-02	1.846363e-05	0.000000e+00	0.000000e+00	0.000000e+00	0.000000e+00	
1.001090e+00	-1.609828e-03	1.290530e-01	1.638097e+00	4.627577e+00	2.783139e+04	1.109521e+04	2.995006e+02	-1.604698e-01	1.096410e-01	1.843552e-05	0.000000e+00	0.000000e+00	0.000000e+00	0.000000e+00	
1.000724e+00	-1.413597e-03	1.279157e-01	2.578222e+00	6.608257e+00	2.761372e+04	1.096682e+04	2.986671e+02	-1.387157e+00	1.600619e-01	1.839602e-05	0.000000e+00	0.000000e+00	0.000000e+00	0.000000e+00	
1.001576e+00	-2.267196e-03	1.290829e-01	1.410924e+00	2.725515e+00	2.782410e+04	1.111505e+04	2.999666e+02	2.904259e-02	6.847808e-02	1.845758e-05	0.000000e+00	0.000000e+00	0.000000e+00	0.000000e+00	
1.001134e+00	-2.083792e-03	1.281638e-01	1.841003e+00	3.480188e+00	2.763231e+04	1.102874e+04	2.997716e+02	-7.955977e-01	8.850551e-02	1.844836e-05	0.000000e+00	0.000000e+00	0.000000e+00	0.000000e+00	
1.001705e+00	-2.786527e-03	1.289037e-01	1.820358e+00	2.325138e+00	2.778586e+04	1.110081e+04	2.999990e+02	-1.069514e-01	6.597562e-02	1.845912e-05	0.000000e+00	0.000000e+00	0.000000e+00	0.000000e+00	
1.001902e+00	-3.290424e-03	1.289339e-01	2.036174e+00	2.049274e+00	2.779296e+04	1.110424e+04	3.000212e+02	-7.421228e-02	6.452601e-02	1.846017e-05	0.000000e+00	0.000000e+00	0.000000e+00	0.000000e+00	
1.002488e+00	-3.477815e-03	1.289699e-01	2.036447e+00	1.836023e+00	2.780037e+04	1.110849e+04	3.000524e+02	-3.359371e-02	6.122352e-02	1.846164e-05	0.000000e+00	0.000000e+00	0.000000e+00	0.000000e+00	
1.003352e+00	-3.667959e-03	1.289694e-01	2.088258e+00	1.677313e+00	2.780083e+04	1.110921e+04	3.000728e+02	-2.676448e-02	5.980505e-02	1.846261e-05	0.000000e+00	0.000000e+00	0.000000e+00	0.000000e+00	
1.004019e+00	-2.725256e-03	1.289472e-01	1.668705e+00	1.596421e+00	2.779295e+04	1.110891e+04	3.001165e+02	-2.959830e-02	5.156863e-02	1.846467e-05	0.000000e+00	0.000000e+00	0.000000e+00	0.000000e+00	
1.003863e+00	-7.637437e-05	1.290312e-01	-1.012385e-01	1.336600e+00	2.780263e+04	1.111827e+04	3.001738e+02	5.979749e-02	2.990982e-02	1.846738e-05	0.000000e+00	0.000000e+00	0.000000e+00	0.000000e+00	
1.004045e+00	-1.501954e-03	1.288796e-01	1.146709e+00	1.481702e+00	2.777453e+04	1.110436e+04	3.001510e+02	-7.303585e-02	4.185761e-02	1.846631e-05	0.000000e+00	0.000000e+00	0.000000e+00	0.000000e+00	
1.004444e+00	-7.170426e-04	1.289397e-01	6.678860e-01	1.429194e+00	2.778540e+04	1.111030e+04	3.001715e+02	-1.631082e-02	3.522597e-02	1.846727e-05	0.000000e+00	0.000000e+00	0.000000e+00	0.000000e+00	
1.004462e+00	-2.116399e-03	1.289957e-01	1.454097e+00	1.522081e+00	2.780162e+04	1.111378e+04	3.001352e+02	1.691764e-02	4.698669e-02	1.846556e-05	0.000000e+00	0.000000e+00	0.000000e+00	0.000000e+00	
1.003405e+00	4.039463e-04	1.289243e-01	-7.300804e-01	1.136090e+00	2.777668e+04	1.110784e+04	3.001409e+02	-3.979045e-02	3.016008e-02	1.846583e-05	0.000000e+00	0.000000e+00	0.000000e+00	0.000000e+00	
1.002924e+00	7.566726e-04	1.290849e-01	-5.015049e-01	1.045678e+00	2.780758e+04	1.112095e+04	3.001212e+02	8.543263e-02	2.586904e-02	1.846490e-05	0.000000e+00	0.000000e+00	0.000000e+00	0.000000e+00	
1.004090e+00	6.075519e-04	1.289477e-01	-7.934458e-01	1.159811e+00	2.778104e+04	1.110935e+04	3.001273e+02	-2.534054e-02	3.137886e-02	1.846518e-05	0.000000e+00	0.000000e+00	0.000000e+00	0.000000e+00	
1.002451e+00	1.057968e-03	1.293274e-01	1.443770e+00	2.351556e+00	2.786632e+04	1.113475e+04	2.999302e+02	2.173088e-01	6.145611e-02	1.845586e-05	0.000000e+00	0.000000e+00	0.000000e+00	0.000000e+00	
1.001392e+00	-6.659791e-04	1.279550e-01	-1.108600e+00	2.777302e+00	2.758116e+04	1.101849e+04	2.999820e+02	-8.935078e-01	6.730905e-02	1.845831e-05	0.000000e+00	0.000000e+00	0.000000e+00	0.000000e+00	
1.001055e+00	-8.611916e-04	1.286232e-01	-1.673855e+00	4.905336e+00	2.774175e+04	1.105493e+04	2.994105e+02	-5.453298e-01	1.161675e-01	1.843126e-05	0.000000e+00	0.000000e+00	0.000000e+00	0.000000e+00	
1.001960e+00	8.009956e-04	1.296657e-01	2.070582e+00	3.310066e+00	2.795109e+04	1.115692e+04	2.997435e+02	4.291248e-01	8.675581e-02	1.844702e-05	0.000000e+00	0.000000e+00	0.000000e+00	0.000000e+00	
1.001906e+00	3.441306e-04	1.291160e-01	-2.328516e-01	1.549292e+00	2.782040e+04	1.112436e+04	3.001408e+02	1.179853e-01	3.493754e-02	1.846582e-05	0.000000e+00	0.000000e+00	0.000000e+00	0.000000e+00	
1.001827e+00	-6.774507e-05	1.296458e-01	-1.610405e+00	1.286729e+00	2.793974e+04	1.116934e+04	3.001232e+02	5.477805e-01	4.578151e-02	1.846499e-05	0.000000e+00	0.000000e+00	0.000000e+00	0.000000e+00	
1.001461e+00	-2.761007e-04	1.280831e-01	-1.778297e+00	1.915443e+00	2.760640e+04	1.103189e+04	3.000464e+02	-7.654317e-01	5.876455e-02	1.846136e-05	0.000000e+00	0.000000e+00	0.000000e+00	0.000000e+00	
1.000704e+00	-1.006154e-03	1.295596e-01	-1.321347e+00	7.538446e+00	2.797350e+04	1.109898e+04	2.984308e+02	-1.244657e-01	1.705739e-01	1.838482e-05	0.000000e+00	0.000000e+00	0.000000e+00	0.000000e+00	
1.000347e+00	-1.281510e-03	1.282439e-01	2.678422e+00	9.955639e+00	2.774262e+04	1.093129e+04	2.969375e+02	-1.726634e+00	2.327156e-01	1.831389e-05	0.000000e+00	0.000000e+00	0.000000e+00	0.000000e+00	
3.124498e-03	-6.037985e-02	1.259397e-01	2.421369e+00	-1.023093e+01	2.730116e+04	1.074493e+04	2.972152e+02	-3.507159e+00	2.415476e-01	1.832709e-05	0.000000e+00	0.000000e+00	0.000000e+00	0.000000e+00	
2.537646e-03	-5.769161e-02	1.259506e-01	2.129058e+00	-1.026002e+01	2.730300e+04	1.074684e+04	2.972426e+02	-3.488841e+00	2.407122e-01	1.832840e-05	0.000000e+00	0.000000e+00	0.000000e+00	0.000000e+00	
2.003081e-03	-5.499860e-02	1.261468e-01	1.828028e+00	-1.020321e+01	2.734316e+04	1.076691e+04	2.973344e+02	-3.297108e+00	2.377114e-01	1.833276e-05	0.000000e+00	0.000000e+00	0.000000e+00	0.000000e+00	
1.004393e+00	-3.726684e-03	1.289686e-01	2.056209e+00	1.579545e+00	2.780074e+04	1.110987e+04	3.000926e+02	-2.042974e-02	5.789215e-02	1.846355e-05	0.000000e+00	0.000000e+00	0.000000e+00	0.000000e+00	
1.000724e+00	-1.904737e-03	1.293637e-01	2.538338e+00	4.864276e+00	2.790571e+04	1.111574e+04	2.993342e+02	3.566436e-02	1.222855e-01	1.842764e-05	0.000000e+00	0.000000e+00	0.000000e+00	0.000000e+00	
1.000384e+00	-1.649424e-03	1.272922e-01	5.105776e+00	6.052880e+00	2.749419e+04	1.089915e+04	2.982780e+02	-2.033669e+00	1.796778e-01	1.837757e-05	0.000000e+00	0.000000e+00	0.000000e+00	0.000000e+00	
1.001181e+00	-2.552344e-03	1.288396e-01	2.043573e+00	2.929375e+00	2.777637e+04	1.109074e+04	2.998760e+02	-2.031635e-01	7.985692e-02	1.845329e-05	0.000000e+00	0.000000e+00	0.000000e+00	0.000000e+00	
1.000740e+00	-2.364479e-03	1.292024e-01	2.259020e+00	3.516209e+00	2.785919e+04	1.111664e+04	2.997320e+02	4.424829e-02	9.320126e-02	1.844648e-05	0.000000e+00	0.000000e+00	0.000000e+00	0.000000e+00	
1.001319e+00	-3.200144e-03	1.288812e-01	2.215012e+00	2.382008e+00	2.778415e+04	1.109724e+04	2.999548e+02	-1.410586e-01	7.269113e-02	1.845702e-05	0.000000e+00	0.000000e+00	0.000000e+00	0.000000e+00	
1.001582e+00	-3.738457e-03	1.288426e-01	2.279590e+00	2.081547e+00	2.777537e+04	1.109535e+04	2.999937e+02	-1.591031e-01	6.900296e-02	1.845886e-05	0.000000e+00	0.000000e+00	0.000000e+00	0.000000e+00	
1.000043e+00	-1.491435e-03	1.294122e-01	6.653716e+00	5.695428e+00	2.796318e+04	1.106672e+04	2.979025e+02	-4.326860e-01	1.955981e-01	1.835974e-05	0.000000e+00	0.000000e+00	0.000000e+00	0.000000e+00	
9.997621e-01	-1.104659e-03	1.309479e-01	7.449771e+00	2.369520e+00	2.827414e+04	1.121632e+04	2.983885e+02	9.965949e-01	1.723975e-01	1.838281e-05	0.000000e+00	0.000000e+00	0.000000e+00	0.000000e+00	
1.002204e+00	-3.840072e-03	1.289267e-01	2.267151e+00	1.897319e+00	2.779296e+04	1.110363e+04	3.000216e+02	-8.006461e-02	6.603631e-02	1.846018e-05	0.000000e+00	0.000000e+00	0.000000e+00	0.000000e+00	
1.002856e+00	-4.175711e-03	1.289284e-01	2.317941e+00	1.724926e+00	2.779371e+04	1.110454e+04	3.000421e+02	-7.139065e-02	6.453696e-02	1.846116e-05	0.000000e+00	0.000000e+00	0.000000e+00	0.000000e+00	
1.003877e+00	-4.468705e-03	1.289684e-01	2.405085e+00	1.595715e+00	2.780366e+04	1.110854e+04	3.000572e+02	-3.308264e-02	6.444770e-02	1.846187e-05	0.000000e+00	0.000000e+00	0.000000e+00	0.000000e+00	
1.004955e+00	-2.957878e-03	1.289756e-01	1.772520e+00	1.517033e+00	2.779983e+04	1.111149e+04	3.001202e+02	-4.927360e-03	5.208634e-02	1.846485e-05	0.000000e+00	0.000000e+00	0.000000e+00	0.000000e+00	
1.004635e+00	6.136467e-05	1.289151e-01	-1.048723e-01	1.323065e+00	2.777720e+04	1.110815e+04	3.001706e+02	-3.686892e-02	2.964180e-02	1.846723e-05	0.000000e+00	0.000000e+00	0.000000e+00	0.000000e+00	
1.004846e+00	-1.415899e-03	1.290172e-01	1.148332e+00	1.474237e+00	2.780432e+04	1.111631e+04	3.001535e+02	4.115048e-02	4.170338e-02	1.846642e-05	0.000000e+00	0.000000e+00	0.000000e+00	0.000000e+00	
1.005267e+00	-5.942425e-04	1.289536e-01	6.140758e-01	1.417020e+00	2.778818e+04	1.111157e+04	3.001735e+02	-4.145672e-03	3.448092e-02	1.846737e-05	0.000000e+00	0.000000e+00	0.000000e+00	0.000000e+00	
1.005369e+00	-2.144275e-03	1.289463e-01	1.496527e+00	1.465673e+00	2.779116e+04	1.110966e+04	3.001389e+02	-2.244228e-02	4.677397e-02	1.846573e-05	0.000000e+00	0.000000e+00	0.000000e+00	0.000000e+00	
1.005548e+00	-3.775537e-03	1.289657e-01	2.083848e+00	1.486247e+00	2.780058e+04	1.111007e+04	3.001049e+02	-1.850039e-02	5.714866e-02	1.846412e-05	0.000000e+00	0.000000e+00	0.000000e+00	0.000000e+00	
1.004912e+00	8.922098e-04	1.288799e-01	-6.808596e-01	1.093268e+00	2.776601e+04	1.110383e+04	3.001359e+02	-7.811923e-02	2.877429e-02	1.846559e-05	0.000000e+00	0.000000e+00	0.000000e+00	0.000000e+00	
1.003530e+00	1.046070e-03	1.286611e-01	-4.744572e-01	1.236334e+00	2.771521e+04	1.108336e+04	3.000920e+02	-2.737186e-01	2.963778e-02	1.846351e-05	0.000000e+00	0.000000e+00	0.000000e+00	0.000000e+00	
1.002981e+00	1.394463e-03	1.290619e-01	8.945639e-01	1.875949e+00	2.780227e+04	1.111422e+04	2.999930e+02	2.109699e-02	4.637786e-02	1.845883e-05	0.000000e+00	0.000000e+00	0.000000e+00	0.000000e+00	
1.004302e+00	1.516062e-03	1.291256e-01	-3.716066e-01	1.221803e+00	2.781494e+04	1.112345e+04	3.000942e+02	1.093117e-01	2.847888e-02	1.846362e-05	0.000000e+00	0.000000e+00	0.000000e+00	0.000000e+00	
1.002700e+00	1.709675e-03	1.289395e-01	3.990695e+00	4.043100e+00	2.781120e+04	1.107442e+04	2.992027e+02	-3.590788e-01	1.270566e-01	1.842141e-05	0.000000e+00	0.000000e+00	0.000000e+00	0.000000e+00	
1.002019e+00	1.335122e-03	1.298624e-01	4.859406e+00	5.685876e+00	2.804036e+04	1.112999e+04	2.985668e+02	1.717914e-01	1.662723e-01	1.839127e-05	0.000000e+00	0.000000e+00	0.000000e+00	0.000000e+00	
1.001126e+00	-4.614440e-04	1.319943e-01	-3.898224e+00	3.013268e+00	2.846657e+04	1.134984e+04	2.995471e+02	2.272331e+00	1.075849e-01	1.843773e-05	0.000000e+00	0.000000e+00	0.000000e+00	0.000000e+00	
1.000806e+00	-6.225844e-04	1.254394e-01	-3.841695e+00	5.394322e+00	2.707406e+04	1.075970e+04	2.988109e+02	-3.366010e+00	1.523491e-01	1.840284e-05	0.000000e+00	0.000000e+00	0.000000e+00	0.000000e+00	
1.001580e+00	1.048894e-03	1.294471e-01	5.869196e+00	7.403488e+00	2.799122e+04	1.105858e+04	2.976031e+02	-5.104473e-01	2.110408e-01	1.834553e-05	0.000000e+00	0.000000e+00	0.000000e+00	0.000000e+00	
1.001521e+00	5.944035e-04	1.290655e-01	3.817805e+00	4.933920e+00	2.784996e+04	1.107967e+04	2.990524e+02	-3.089172e-01	1.394278e-01	1.841429e-05	0.000000e+00	0.000000e+00	0.000000e+00	0.000000e+00	
1.001494e+00	1.395993e-04	1.279252e-01	2.356400e-01	1.998553e+00	2.756628e+04	1.102018e+04	3.000980e+02	-8.773222e-01	4.529780e-02	1.846380e-05	0.000000e+00	0.000000e+00	0.000000e+00	0.000000e+00	
1.001156e+00	-5.248441e-05	1.287488e-01	-4.401899e-01	2.704371e+00	2.774622e+04	1.108682e+04	2.999813e+02	-2.406015e-01	6.129219e-02	1.845828e-05	0.000000e+00	0.000000e+00	0.000000e+00	0.000000e+00	
1.000464e+00	-6.948710e-04	1.335080e-01	-9.777278e+00	6.148478e+00	2.890099e+04	1.136056e+04	2.964305e+02	2.374710e+00	2.506448e-01	1.828977e-05	0.000000e+00	0.000000e+00	0.000000e+00	0.000000e+00	
1.000000e+00	-1.000000e-03	1.131049e-01	-1.393921e+00	6.187983e+00	2.441205e+04	9.693675e+03	2.985640e+02	-1.355101e+01	1.619006e-01	1.839114e-05	0.000000e+00	0.000000e+00	0.000000e+00	0.000000e+00	
4.487486e-03	-6.588002e-02	1.259137e-01	2.751513e+00	-1.029853e+01	2.729881e+04	1.073903e+04	2.971135e+02	-3.563468e+00	2.449990e-01	1.832226e-05	0.000000e+00	0.000000e+00	0.000000e+00	0.000000e+00	
6.075662e-03	-7.141372e-02	1.256955e-01	3.191171e+00	-1.038526e+01	2.725658e+04	1.071482e+04	2.969582e+02	-3.794817e+00	2.502034e-01	1.831487e-05	0.000000e+00	0.000000e+00	0.000000e+00	0.000000e+00	
-5.008861e-04	-5.949515e-02	1.261831e-01	2.292018e+00	-1.006537e+01	2.735137e+04	1.077164e+04	2.973795e+02	-3.251905e+00	2.366474e-01	1.833490e-05	0.000000e+00	0.000000e+00	0.000000e+00	0.000000e+00	
-8.214741e-04	-6.410143e-02	1.261697e-01	2.639055e+00	-1.003073e+01	2.734975e+04	1.076937e+04	2.973482e+02	-3.273649e+00	2.378095e-01	1.833342e-05	0.000000e+00	0.000000e+00	0.000000e+00	0.000000e+00	
-9.283409e-04	-5.656047e-02	1.262385e-01	2.016241e+00	-1.004383e+01	2.736166e+04	1.077840e+04	2.974356e+02	-3.187348e+00	2.347152e-01	1.833757e-05	0.000000e+00	0.000000e+00	0.000000e+00	0.000000e+00	
-3.519354e-03	-5.828674e-02	1.263681e-01	2.170390e+00	-9.916613e+00	2.738867e+04	1.079237e+04	2.975157e+02	-3.053847e+00	2.323177e-01	1.834137e-05	0.000000e+00	0.000000e+00	0.000000e+00	0.000000e+00	
1.078855e-03	-4.946969e-02	1.261951e-01	1.464805e+00	-1.010152e+01	2.735061e+04	1.077512e+04	2.974474e+02	-3.218648e+00	2.339425e-01	1.833813e-05	0.000000e+00	0.000000e+00	0.000000e+00	0.000000e+00	
-2.671874e-03	-5.217929e-02	1.264018e-01	1.692690e+00	-9.900870e+00	2.739307e+04	1.079759e+04	2.975801e+02	-3.004000e+00	2.297869e-01	1.834444e-05	0.000000e+00	0.000000e+00	0.000000e+00	0.000000e+00	
1.004987e+00	-4.650470e-03	1.289903e-01	2.395529e+00	1.492000e+00	2.780869e+04	1.111113e+04	3.000762e+02	-8.407424e-03	6.300297e-02	1.846277e-05	0.000000e+00	0.000000e+00	0.000000e+00	0.000000e+00	
1.001507e+00	-4.201572e-03	1.289245e-01	2.524591e+00	1.987539e+00	2.779513e+04	1.110204e+04	2.999835e+02	-9.527444e-02	7.177747e-02	1.845838e-05	0.000000e+00	0.000000e+00	0.000000e+00	0.000000e+00	
1.000294e+00	-2.228164e-03	1.280263e-01	3.469680e+00	3.994369e+00	2.761712e+04	1.100312e+04	2.993966e+02	-1.040357e+00	1.191402e-01	1.843060e-05	0.000000e+00	0.000000e+00	0.000000e+00	0.000000e+00	
1.000747e+00	-3.049890e-03	1.289586e-01	2.592901e+00	2.897608e+00	2.780622e+04	1.109904e+04	2.998233e+02	-1.238823e-01	8.686271e-02	1.845080e-05	0.000000e+00	0.000000e+00	0.000000e+00	0.000000e+00	
1.000985e+00	-3.676673e-03	1.288520e-01	2.482225e+00	2.256229e+00	2.778017e+04	1.109460e+04	2.999514e+02	-1.662917e-01	7.498070e-02	1.845686e-05	0.000000e+00	0.000000e+00	0.000000e+00	0.000000e+00	
9.996069e-01	-1.963719e-03	1.271266e-01	4.529220e+00	2.775234e+00	2.742302e+04	1.092482e+04	2.993699e+02	-1.788456e+00	1.204638e-01	1.842933e-05	0.000000e+00	0.000000e+00	0.000000e+00	0.000000e+00	
9.990485e-01	-1.418522e-03	1.277123e-01	4.802389e+00	2.342238e+00	2.754895e+04	1.097487e+04	2.993623e+02	-1.310218e+00	1.206189e-01	1.842897e-05	0.000000e+00	0.000000e+00	0.000000e+00	0.000000e+00	
1.002223e+00	-4.543170e-03	1.289899e-01	2.509415e+00	1.773805e+00	2.780878e+04	1.110887e+04	3.000160e+02	-2.997204e-02	6.861053e-02	1.845992e-05	0.000000e+00	0.000000e+00	0.000000e+00	0.000000e+00	
1.002892e+00	-4.956380e-03	1.289795e-01	2.543693e+00	1.664711e+00	2.780713e+04	1.110852e+04	3.000309e+02	-3.328574e-02	6.787688e-02	1.846062e-05	0.000000e+00	0.000000e+00	0.000000e+00	0.000000e+00	
1.001683e+00	-5.115738e-03	1.288397e-01	2.719813e+00	1.817787e+00	2.777859e+04	1.109482e+04	2.999860e+02	-1.641777e-01	7.312704e-02	1.845850e-05	0.000000e+00	0.000000e+00	0.000000e+00	0.000000e+00	
1.004643e+00	-5.718987e-03	1.289958e-01	2.664339e+00	1.478312e+00	2.781246e+04	1.111059e+04	3.000488e+02	-1.353297e-02	6.802204e-02	1.846147e-05	0.000000e+00	0.000000e+00	0.000000e+00	0.000000e+00	
1.003612e+00	-5.491784e-03	1.289900e-01	2.679766e+00	1.571088e+00	2.781125e+04	1.110954e+04	3.000339e+02	-2.357117e-02	6.935239e-02	1.846077e-05	0.000000e+00	0.000000e+00	0.000000e+00	0.000000e+00	
1.006021e+00	-2.854926e-03	1.289772e-01	1.769529e+00	1.447266e+00	2.780013e+04	1.111195e+04	3.001289e+02	-5.558212e-04	5.103419e-02	1.846526e-05	0.000000e+00	0.000000e+00	0.000000e+00	0.000000e+00	
1.005511e+00	2.301100e-04	1.290225e-01	-6.614613e-02	1.300332e+00	2.780027e+04	1.111748e+04	3.001728e+02	5.227438e-02	2.905465e-02	1.846734e-05	0.000000e+00	0.000000e+00	0.000000e+00	0.000000e+00	
1.005750e+00	-1.310206e-03	1.289572e-01	1.106819e+00	1.433922e+00	2.779111e+04	1.111135e+04	3.001592e+02	-6.236094e-03	4.044313e-02	1.846670e-05	0.000000e+00	0.000000e+00	0.000000e+00	0.000000e+00	
1.006197e+00	-4.462836e-04	1.289796e-01	6.043386e-01	1.385184e+00	2.779365e+04	1.111392e+04	3.001763e+02	1.825068e-02	3.373542e-02	1.846750e-05	0.000000e+00	0.000000e+00	0.000000e+00	0.000000e+00	
1.006333e+00	-1.908829e-03	1.289985e-01	1.432400e+00	1.417302e+00	2.780192e+04	1.111447e+04	3.001474e+02	2.355673e-02	4.497692e-02	1.846614e-05	0.000000e+00	0.000000e+00	0.000000e+00	0.000000e+00	
1.006704e+00	-3.735315e-03	1.289824e-01	2.043047e+00	1.406534e+00	2.780379e+04	1.111198e+04	3.001174e+02	-2.958040e-04	5.537283e-02	1.846472e-05	0.000000e+00	0.000000e+00	0.000000e+00	0.000000e+00	
1.006197e+00	-4.791997e-03	1.290079e-01	2.370156e+00	1.409634e+00	2.781252e+04	1.111322e+04	3.000917e+02	1.157290e-02	6.155298e-02	1.846350e-05	0.000000e+00	0.000000e+00	0.000000e+00	0.000000e+00	
1.005869e+00	9.686697e-04	1.289613e-01	-5.422006e-01	1.097625e+00	2.778374e+04	1.111117e+04	3.001449e+02	-7.978528e-03	2.733333e-02	1.846602e-05	0.000000e+00	0.000000e+00	0.000000e+00	0.000000e+00	
1.005291e+00	1.741756e-03	1.288797e-01	-2.745644e-01	1.045272e+00	2.776183e+04	1.110292e+04	3.001117e+02	-8.684039e-02	2.414587e-02	1.846445e-05	0.000000e+00	0.000000e+00	0.000000e+00	0.000000e+00	
1.003584e+00	2.044730e-03	1.286706e-01	2.382532e+00	2.506292e+00	2.772881e+04	1.107294e+04	2.997876e+02	-3.733005e-01	7.742718e-02	1.844911e-05	0.000000e+00	0.000000e+00	0.000000e+00	0.000000e+00	
1.004584e+00	2.429850e-03	1.289544e-01	1.983516e+00	1.991430e+00	2.778518e+04	1.110182e+04	2.999082e+02	-9.734975e-02	6.278242e-02	1.845482e-05	0.000000e+00	0.000000e+00	0.000000e+00	0.000000e+00	
1.002144e+00	2.017520e-03	1.305262e-01	7.171362e+00	7.643807e+00	2.825109e+04	1.113211e+04	2.971051e+02	1.920483e-01	2.323864e-01	1.832186e-05	0.000000e+00	0.000000e+00	0.000000e+00	0.000000e+00	
1.002922e+00	2.549080e-03	1.307755e-01	6.766003e+00	6.404836e+00	2.827851e+04	1.117866e+04	2.977786e+02	6.367897e-01	2.059395e-01	1.835386e-05	0.000000e+00	0.000000e+00	0.000000e+00	0.000000e+00	
1.001695e+00	1.570905e-03	1.318085e-01	7.267876e+00	8.996777e+00	2.855534e+04	1.121917e+04	2.965156e+02	1.023843e+00	2.541871e-01	1.829382e-05	0.000000e+00	0.000000e+00	0.000000e+00	0.000000e+00	
1.001221e+00	1.344401e-03	1.312622e-01	7.659057e+00	1.024166e+01	2.847283e+04	1.113993e+04	2.956469e+02	2.667942e-01	2.826532e-01	1.825245e-05	0.000000e+00	0.000000e+00	0.000000e+00	0.000000e+00	
1.000851e+00	-2.022338e-04	1.250454e-01	-2.150712e-01	2.810421e+00	2.694649e+04	1.076589e+04	2.999249e+02	-3.306860e+00	6.492567e-02	1.845561e-05	0.000000e+00	0.000000e+00	0.000000e+00	0.000000e+00	
1.000595e+00	-3.622413e-04	1.262777e-01	-2.687919e+00	4.153531e+00	2.722229e+04	1.085015e+04	2.993225e+02	-2.501821e+00	1.129617e-01	1.842709e-05	0.000000e+00	0.000000e+00	0.000000e+00	0.000000e+00	
1.001139e+00	8.623145e-04	1.326736e-01	6.641982e+00	9.905293e+00	2.874563e+04	1.128384e+04	2.962803e+02	1.641759e+00	2.605025e-01	1.828262e-05	0.000000e+00	0.000000e+00	0.000000e+00	0.000000e+00	
1.001147e+00	3.285369e-04	1.326417e-01	4.394590e+00	7.171455e+00	2.865318e+04	1.135460e+04	2.982101e+02	2.317817e+00	1.831678e-01	1.837435e-05	0.000000e+00	0.000000e+00	0.000000e+00	0.000000e+00	
1.000848e+00	1.491888e-04	1.303592e-01	7.543280e+00	8.852898e+00	2.823052e+04	1.108467e+04	2.962179e+02	-2.612013e-01	2.585904e-01	1.827965e-05	0.000000e+00	0.000000e+00	0.000000e+00	0.000000e+00	
1.000365e+00	-3.393776e-04	1.242551e-01	4.586178e+00	1.624882e+01	2.707923e+04	1.037287e+04	2.908137e+02	-7.061897e+00	3.974619e-01	1.802121e-05	0.000000e+00	0.000000e+00	0.000000e+00	0.000000e+00	
1.000000e+00	0.000000e+00	2.416731e-01	1.931785e+01	1.026617e+02	5.847564e+04	1.435937e+04	2.069843e+02	3.102592e+01	1.498712e+00	1.367912e-05	0.000000e+00	0.000000e+00	0.000000e+00	0.000000e+00	
2.356209e-05	-7.011507e-02	1.260665e-01	3.058134e+00	-1.006974e+01	2.733099e+04	1.075669e+04	2.972414e+02	-3.394757e+00	2.415306e-01	1.832834e-05	0.000000e+00	0.000000e+00	0.000000e+00	0.000000e+00	
7.917903e-03	-7.705556e-02	1.255625e-01	3.627744e+00	-1.044819e+01	2.723249e+04	1.069815e+04	2.968104e+02	-3.954049e+00	2.550408e-01	1.830785e-05	0.000000e+00	0.000000e+00	0.000000e+00	0.000000e+00	
1.006240e-02	-8.289149e-02	1.253950e-01	4.088286e+00	-1.050363e+01	2.720149e+04	1.067797e+04	2.966463e+02	-4.146849e+00	2.603289e-01	1.830004e-05	0.000000e+00	0.000000e+00	0.000000e+00	0.000000e+00	
1.251909e-02	-8.887724e-02	1.252201e-01	4.568945e+00	-1.054389e+01	2.716925e+04	1.065679e+04	2.964715e+02	-4.349199e+00	2.658601e-01	1.829172e-05	0.000000e+00	0.000000e+00	0.000000e+00	0.000000e+00	
1.529738e-02	-9.497094e-02	1.250339e-01	5.075031e+00	-1.055605e+01	2.713477e+04	1.063447e+04	2.962909e+02	-4.562475e+00	2.714683e-01	1.828313e-05	0.000000e+00	0.000000e+00	0.000000e+00	0.000000e+00	
1.843145e-02	-1.011719e-01	1.248472e-01	5.603308e+00	-1.052725e+01	2.710007e+04	1.061220e+04	2.961126e+02	-4.775262e+00	2.769009e-01	1.827464e-05	0.000000e+00	0.000000e+00	0.000000e+00	0.000000e+00	
2.196161e-02	-1.074871e-01	1.246685e-01	6.139153e+00	-1.045375e+01	2.706678e+04	1.059093e+04	2.959429e+02	-4.978418e+00	2.819713e-01	1.826656e-05	0.000000e+00	0.000000e+00	0.000000e+00	0.000000e+00	
2.590787e-02	-1.138977e-01	1.245023e-01	6.677530e+00	-1.034710e+01	2.703611e+04	1.057083e+04	2.957756e+02	-5.170488e+00	2.868909e-01	1.825858e-05	0.000000e+00	0.000000e+00	0.000000e+00	0.000000e+00	
3.032086e-02	-1.204346e-01	1.243325e-01	7.223929e+00	-1.020832e+01	2.700478e+04	1.055034e+04	2.956052e+02	-5.366303e+00	2.918246e-01	1.825047e-05	0.000000e+00	0.000000e+00	0.000000e+00	0.000000e+00	
3.519676e-02	-1.270183e-01	1.241574e-01	7.782303e+00	-1.002248e+01	2.697219e+04	1.052950e+04	2.954375e+02	-5.565334e+00	2.966047e-01	1.824247e-05	0.000000e+00	0.000000e+00	0.000000e+00	0.000000e+00	
4.055945e-02	-1.336132e-01	1.239953e-01	8.341959e+00	-9.782069e+00	2.694198e+04	1.051020e+04	2.952816e+02	-5.749735e+00	3.009776e-01	1.823504e-05	0.000000e+00	0.000000e+00	0.000000e+00	0.000000e+00	
4.640551e-02	-1.401557e-01	1.238510e-01	8.890584e+00	-9.487276e+00	2.691504e+04	1.049302e+04	2.951424e+02	-5.913877e+00	3.048209e-01	1.822840e-05	0.000000e+00	0.000000e+00	0.000000e+00	0.000000e+00	
5.272092e-02	-1.465842e-01	1.237283e-01	9.415481e+00	-9.137391e+00	2.689197e+04	1.047853e+04	2.950269e+02	-6.052367e+00	3.079614e-01	1.822289e-05	0.000000e+00	0.000000e+00	0.000000e+00	0.000000e+00	